31
Lattice="7.872856191053 0.0 0.0 0.0 7.872856191053 0.0 0.0 0.0 21.56695" Properties=species:S:1:pos:R:3:tags:I:1:initial_magmoms:R:1:forces:R:3 energy=-149383.397535669 pbc="T T F"
Cu       0.00000000      -0.00000000       3.58870000        3       0.00000000       0.00000000       0.00000000       0.00000000
Cu       2.62428540      -0.00000000       3.58870000        3       0.00000000       0.00000000       0.00000000       0.00000000
Cu       5.24857079      -0.00000000       3.58870000        3       0.00000000       0.00000000       0.00000000       0.00000000
Cu       0.00000000       2.62428540       3.58870000        3       0.00000000       0.00000000       0.00000000       0.00000000
Cu       2.62428540       2.62428540       3.58870000        3       0.00000000       0.00000000       0.00000000       0.00000000
Cu       5.24857079       2.62428540       3.58870000        3       0.00000000       0.00000000       0.00000000       0.00000000
Cu       0.00000000       5.24857079       3.58870000        3       0.00000000       0.00000000       0.00000000       0.00000000
Cu       2.62428540       5.24857079       3.58870000        3       0.00000000       0.00000000       0.00000000       0.00000000
Cu       5.24857079       5.24857079       3.58870000        3       0.00000000       0.00000000       0.00000000       0.00000000
Cu       1.31211342       1.31397011       5.42568063        2       0.00000000       0.00000000       0.00000000       0.00000000
Cu       3.92582671       1.30392176       5.44803675        2       0.00000000       0.00000000       0.00000000       0.00000000
Cu       6.57123570       1.30404304       5.44797887        2       0.00000000       0.00000000       0.00000000       0.00000000
Cu       1.31214371       3.93643317       5.47450036        2       0.00000000       0.00000000       0.00000000       0.00000000
Cu       3.92512754       3.93646497       5.46240904        2       0.00000000       0.00000000       0.00000000       0.00000000
Cu       6.57199121       3.93654689       5.46237341        2       0.00000000       0.00000000       0.00000000       0.00000000
Cu       1.31214107       6.55891270       5.42562024        2       0.00000000       0.00000000       0.00000000       0.00000000
Cu       3.92581724       6.56898373       5.44801105        2       0.00000000       0.00000000       0.00000000       0.00000000
Cu       6.57129252       6.56904789       5.44798864        2       0.00000000       0.00000000       0.00000000       0.00000000
Cu      -0.00656550      -0.02951333       7.17964111        1       0.00000000       0.00011528      -0.00806673      -0.00557988
Cu       2.62951492      -0.05856322       7.22129368        1       0.00000000       0.00611431      -0.02460082       0.00948081
Cu       5.26663316      -0.00149867       7.19288182        1       0.00000000       0.00266979       0.00540223       0.00135325
Cu      -0.08185793       2.61063883       7.27368431        1       0.00000000       0.05061436      -0.00815641      -0.02153601
Cu       2.58072700       2.53255459       7.40180014        1       0.00000000      -0.03870271      -0.05540406       0.00125747
Cu       5.21919704       2.62828616       7.17845105        1       0.00000000       0.00077273       0.00689172       0.00667887
Cu       0.03821106       5.17458920       7.34883680        1       0.00000000       0.01755073      -0.02680083       0.04935196
Cu       2.60399324       5.15434282       7.32719675        1       0.00000000      -0.00602381      -0.06881729       0.06589650
Cu       5.24605425       5.25888721       7.18448667        1       0.00000000       0.00135583       0.00849062      -0.00208363
C        1.21331066       3.73743637       8.34230211        0       0.00000000       0.03618642       0.29416537      -0.11857473
O        1.06411086       3.60217733       9.71278874        0       0.00000000      -0.01990269       0.24162323      -0.09476549
H        1.88549039       3.27335191      10.13695671        0       0.00000000      -0.08294831      -0.02779646      -0.10122148
H        2.64448228       1.18490042       8.33235044        0       0.00000000       0.07945451       0.00034781       0.03735463
