31
Lattice="7.872856191053 0.0 0.0 0.0 7.872856191053 0.0 0.0 0.0 21.56695" Properties=species:S:1:pos:R:3:tags:I:1:initial_magmoms:R:1:forces:R:3 energy=-149383.773783696 pbc="T T F"
Cu       0.00000000      -0.00000000       3.58870000        3       0.00000000       0.00000000       0.00000000       0.00000000
Cu       2.62428540      -0.00000000       3.58870000        3       0.00000000       0.00000000       0.00000000       0.00000000
Cu       5.24857079      -0.00000000       3.58870000        3       0.00000000       0.00000000       0.00000000       0.00000000
Cu       0.00000000       2.62428540       3.58870000        3       0.00000000       0.00000000       0.00000000       0.00000000
Cu       2.62428540       2.62428540       3.58870000        3       0.00000000       0.00000000       0.00000000       0.00000000
Cu       5.24857079       2.62428540       3.58870000        3       0.00000000       0.00000000       0.00000000       0.00000000
Cu       0.00000000       5.24857079       3.58870000        3       0.00000000       0.00000000       0.00000000       0.00000000
Cu       2.62428540       5.24857079       3.58870000        3       0.00000000       0.00000000       0.00000000       0.00000000
Cu       5.24857079       5.24857079       3.58870000        3       0.00000000       0.00000000       0.00000000       0.00000000
Cu       1.31211342       1.31397011       5.42568063        2       0.00000000       0.00000000       0.00000000       0.00000000
Cu       3.92582671       1.30392176       5.44803675        2       0.00000000       0.00000000       0.00000000       0.00000000
Cu       6.57123570       1.30404304       5.44797887        2       0.00000000       0.00000000       0.00000000       0.00000000
Cu       1.31214371       3.93643317       5.47450036        2       0.00000000       0.00000000       0.00000000       0.00000000
Cu       3.92512754       3.93646497       5.46240904        2       0.00000000       0.00000000       0.00000000       0.00000000
Cu       6.57199121       3.93654689       5.46237341        2       0.00000000       0.00000000       0.00000000       0.00000000
Cu       1.31214107       6.55891270       5.42562024        2       0.00000000       0.00000000       0.00000000       0.00000000
Cu       3.92581724       6.56898373       5.44801105        2       0.00000000       0.00000000       0.00000000       0.00000000
Cu       6.57129252       6.56904789       5.44798864        2       0.00000000       0.00000000       0.00000000       0.00000000
Cu      -0.00930282      -0.01412877       7.19782534        1       0.00000000      -0.00230610      -0.00276464      -0.00407711
Cu       2.63916223      -0.01353492       7.18904207        1       0.00000000      -0.00209563      -0.00314167       0.01375377
Cu       5.25140355      -0.00710306       7.19971436        1       0.00000000      -0.00300080       0.00288181       0.00057856
Cu       0.00673609       2.60203852       7.32536384        1       0.00000000       0.00192499      -0.00145610       0.00750366
Cu       2.64123947       2.66030918       7.27419785        1       0.00000000       0.00795091      -0.02653141       0.02462289
Cu       5.25469779       2.61672197       7.19085396        1       0.00000000       0.00368147       0.00063637       0.00197443
Cu      -0.02187853       5.29389377       7.18378176        1       0.00000000       0.00046501      -0.00247250      -0.00189028
Cu       2.64106680       5.29619494       7.18668861        1       0.00000000       0.00213387      -0.00922242      -0.00157236
Cu       5.24799732       5.25212853       7.19562632        1       0.00000000       0.00033904       0.00346916      -0.00115578
C        1.34241243       2.56486779       8.79447771        0       0.00000000       0.01009458       0.03081950       0.00712168
O        1.28034243       3.58532773       9.70337866        0       0.00000000       0.01971939       0.04680997      -0.01019377
H        1.50340635       3.31213730      10.58838934        0       0.00000000      -0.14885872       0.03849408       0.04598478
H        1.54392341       1.61190448       9.34516080        0       0.00000000      -0.11933912       0.00263898       0.08412473
