31
Lattice="7.872856191053 0.0 0.0 0.0 7.872856191053 0.0 0.0 0.0 21.56695" Properties=species:S:1:pos:R:3:tags:I:1:initial_magmoms:R:1:forces:R:3 energy=-149383.675335514 pbc="T T F"
Cu       0.00000000      -0.00000000       3.58870000        3       0.00000000       0.00000000       0.00000000       0.00000000
Cu       2.62428540      -0.00000000       3.58870000        3       0.00000000       0.00000000       0.00000000       0.00000000
Cu       5.24857079      -0.00000000       3.58870000        3       0.00000000       0.00000000       0.00000000       0.00000000
Cu       0.00000000       2.62428540       3.58870000        3       0.00000000       0.00000000       0.00000000       0.00000000
Cu       2.62428540       2.62428540       3.58870000        3       0.00000000       0.00000000       0.00000000       0.00000000
Cu       5.24857079       2.62428540       3.58870000        3       0.00000000       0.00000000       0.00000000       0.00000000
Cu       0.00000000       5.24857079       3.58870000        3       0.00000000       0.00000000       0.00000000       0.00000000
Cu       2.62428540       5.24857079       3.58870000        3       0.00000000       0.00000000       0.00000000       0.00000000
Cu       5.24857079       5.24857079       3.58870000        3       0.00000000       0.00000000       0.00000000       0.00000000
Cu       1.31211342       1.31397011       5.42568063        2       0.00000000       0.00000000       0.00000000       0.00000000
Cu       3.92582671       1.30392176       5.44803675        2       0.00000000       0.00000000       0.00000000       0.00000000
Cu       6.57123570       1.30404304       5.44797887        2       0.00000000       0.00000000       0.00000000       0.00000000
Cu       1.31214371       3.93643317       5.47450036        2       0.00000000       0.00000000       0.00000000       0.00000000
Cu       3.92512754       3.93646497       5.46240904        2       0.00000000       0.00000000       0.00000000       0.00000000
Cu       6.57199121       3.93654689       5.46237341        2       0.00000000       0.00000000       0.00000000       0.00000000
Cu       1.31214107       6.55891270       5.42562024        2       0.00000000       0.00000000       0.00000000       0.00000000
Cu       3.92581724       6.56898373       5.44801105        2       0.00000000       0.00000000       0.00000000       0.00000000
Cu       6.57129252       6.56904789       5.44798864        2       0.00000000       0.00000000       0.00000000       0.00000000
Cu      -0.00550965      -0.00959103       7.20456680        1       0.00000000      -0.00102933       0.00143084      -0.00284414
Cu       2.64259575      -0.00840803       7.16660855        1       0.00000000      -0.00343580      -0.01054266       0.00717231
Cu       5.25635478      -0.01184960       7.19870813        1       0.00000000      -0.00301249       0.00357751      -0.00122710
Cu       0.00350111       2.60433508       7.31296910        1       0.00000000       0.01943132       0.00136024      -0.00584626
Cu       2.62848749       2.70390245       7.23341472        1       0.00000000       0.00533545      -0.01316393       0.00326020
Cu       5.24874972       2.61568912       7.18755916        1       0.00000000       0.01402906       0.00249080       0.00085789
Cu      -0.02268683       5.29797220       7.18680270        1       0.00000000      -0.00120171       0.00363805      -0.00162017
Cu       2.63759043       5.31126736       7.18920637        1       0.00000000       0.00276728      -0.01198362       0.00015227
Cu       5.24744119       5.24645191       7.19750031        1       0.00000000       0.00060550       0.00556202      -0.00071490
C        1.32636261       2.51442002       8.78241358        0       0.00000000       0.02888912       0.04304135       0.01148464
O        1.24789341       3.50860518       9.71975484        0       0.00000000       0.01429483       0.08846693      -0.04603658
H        1.74850784       3.24845017      10.51318699        0       0.00000000      -0.15799322       0.01485438       0.06890062
H        1.74101396       1.60737718       9.20667769        0       0.00000000      -0.07929224       0.03646814       0.09265655
