31
Lattice="7.872856191053 0.0 0.0 0.0 7.872856191053 0.0 0.0 0.0 21.56695" Properties=species:S:1:pos:R:3:tags:I:1:initial_magmoms:R:1:forces:R:3 energy=-149383.209224545 pbc="T T F"
Cu       0.00000000      -0.00000000       3.58870000        3       0.00000000       0.00000000       0.00000000       0.00000000
Cu       2.62428540      -0.00000000       3.58870000        3       0.00000000       0.00000000       0.00000000       0.00000000
Cu       5.24857079      -0.00000000       3.58870000        3       0.00000000       0.00000000       0.00000000       0.00000000
Cu       0.00000000       2.62428540       3.58870000        3       0.00000000       0.00000000       0.00000000       0.00000000
Cu       2.62428540       2.62428540       3.58870000        3       0.00000000       0.00000000       0.00000000       0.00000000
Cu       5.24857079       2.62428540       3.58870000        3       0.00000000       0.00000000       0.00000000       0.00000000
Cu       0.00000000       5.24857079       3.58870000        3       0.00000000       0.00000000       0.00000000       0.00000000
Cu       2.62428540       5.24857079       3.58870000        3       0.00000000       0.00000000       0.00000000       0.00000000
Cu       5.24857079       5.24857079       3.58870000        3       0.00000000       0.00000000       0.00000000       0.00000000
Cu       1.31211342       1.31397011       5.42568063        2       0.00000000       0.00000000       0.00000000       0.00000000
Cu       3.92582671       1.30392176       5.44803675        2       0.00000000       0.00000000       0.00000000       0.00000000
Cu       6.57123570       1.30404304       5.44797887        2       0.00000000       0.00000000       0.00000000       0.00000000
Cu       1.31214371       3.93643317       5.47450036        2       0.00000000       0.00000000       0.00000000       0.00000000
Cu       3.92512754       3.93646497       5.46240904        2       0.00000000       0.00000000       0.00000000       0.00000000
Cu       6.57199121       3.93654689       5.46237341        2       0.00000000       0.00000000       0.00000000       0.00000000
Cu       1.31214107       6.55891270       5.42562024        2       0.00000000       0.00000000       0.00000000       0.00000000
Cu       3.92581724       6.56898373       5.44801105        2       0.00000000       0.00000000       0.00000000       0.00000000
Cu       6.57129252       6.56904789       5.44798864        2       0.00000000       0.00000000       0.00000000       0.00000000
Cu      -0.00657651      -0.02487696       7.18298371        1       0.00000000       0.00190741      -0.02405040      -0.01506617
Cu       2.62587619      -0.04387844       7.21500989        1       0.00000000       0.01170470      -0.02558035      -0.01718923
Cu       5.26507027      -0.00478716       7.19203197        1       0.00000000       0.00738656       0.00656159       0.00048789
Cu      -0.11267907       2.61542859       7.28678718        1       0.00000000       0.05062092      -0.02420268      -0.04202200
Cu       2.60408764       2.56516711       7.40069358        1       0.00000000      -0.08964440      -0.11312458      -0.03791835
Cu       5.21850912       2.62408633       7.17437988        1       0.00000000      -0.01771520       0.00817367       0.00914239
Cu       0.02784843       5.18985977       7.31988304        1       0.00000000       0.05877788      -0.12514356       0.15812291
Cu       2.60733314       5.19586958       7.28755653        1       0.00000000      -0.03728772      -0.10751672       0.11160430
Cu       5.24521239       5.25370643       7.18572051        1       0.00000000      -0.00056513       0.01117287      -0.00743241
C        1.19086726       3.56008839       8.41386649        0       0.00000000       0.00392185       0.58569323      -0.22409043
O        1.07630003       3.45460570       9.77052995        0       0.00000000      -0.02627353       0.30777062      -0.14660849
H        1.93633766       3.29040173      10.19816535        0       0.00000000      -0.09784879      -0.00641256      -0.16162972
H        2.59654003       1.18506471       8.30962776        0       0.00000000       0.19294281      -0.02131328       0.02947360
