31
Lattice="7.872856191053 0.0 0.0 0.0 7.872856191053 0.0 0.0 0.0 21.56695" Properties=species:S:1:pos:R:3:tags:I:1:initial_magmoms:R:1:forces:R:3 energy=-149383.032852869 pbc="T T F"
Cu       0.00000000      -0.00000000       3.58870000        3       0.00000000       0.00000000       0.00000000       0.00000000
Cu       2.62428540      -0.00000000       3.58870000        3       0.00000000       0.00000000       0.00000000       0.00000000
Cu       5.24857079      -0.00000000       3.58870000        3       0.00000000       0.00000000       0.00000000       0.00000000
Cu       0.00000000       2.62428540       3.58870000        3       0.00000000       0.00000000       0.00000000       0.00000000
Cu       2.62428540       2.62428540       3.58870000        3       0.00000000       0.00000000       0.00000000       0.00000000
Cu       5.24857079       2.62428540       3.58870000        3       0.00000000       0.00000000       0.00000000       0.00000000
Cu       0.00000000       5.24857079       3.58870000        3       0.00000000       0.00000000       0.00000000       0.00000000
Cu       2.62428540       5.24857079       3.58870000        3       0.00000000       0.00000000       0.00000000       0.00000000
Cu       5.24857079       5.24857079       3.58870000        3       0.00000000       0.00000000       0.00000000       0.00000000
Cu       1.31211342       1.31397011       5.42568063        2       0.00000000       0.00000000       0.00000000       0.00000000
Cu       3.92582671       1.30392176       5.44803675        2       0.00000000       0.00000000       0.00000000       0.00000000
Cu       6.57123570       1.30404304       5.44797887        2       0.00000000       0.00000000       0.00000000       0.00000000
Cu       1.31214371       3.93643317       5.47450036        2       0.00000000       0.00000000       0.00000000       0.00000000
Cu       3.92512754       3.93646497       5.46240904        2       0.00000000       0.00000000       0.00000000       0.00000000
Cu       6.57199121       3.93654689       5.46237341        2       0.00000000       0.00000000       0.00000000       0.00000000
Cu       1.31214107       6.55891270       5.42562024        2       0.00000000       0.00000000       0.00000000       0.00000000
Cu       3.92581724       6.56898373       5.44801105        2       0.00000000       0.00000000       0.00000000       0.00000000
Cu       6.57129252       6.56904789       5.44798864        2       0.00000000       0.00000000       0.00000000       0.00000000
Cu      -0.00725140      -0.01646385       7.18822966        1       0.00000000      -0.00363252      -0.00059852      -0.00358368
Cu       2.62178856      -0.03486218       7.22096855        1       0.00000000      -0.00178170      -0.00885276      -0.01468823
Cu       5.26249598      -0.00708531       7.19186024        1       0.00000000      -0.00085697       0.00231024       0.00087094
Cu      -0.13046664       2.62386363       7.30140465        1       0.00000000       0.00853323       0.00015444      -0.02192816
Cu       2.63527667       2.60482749       7.41384677        1       0.00000000      -0.04053217      -0.02889043       0.01403890
Cu       5.22466245       2.62122418       7.17118839        1       0.00000000      -0.00917643       0.00079529       0.00557637
Cu       0.00737321       5.23345476       7.26476604        1       0.00000000       0.01602926      -0.03550010       0.05089990
Cu       2.62032009       5.23347522       7.24854129        1       0.00000000      -0.00737205      -0.02080635       0.03302973
Cu       5.24540139       5.24980381       7.18830585        1       0.00000000      -0.00125838       0.00504403      -0.00232010
C        1.18940149       3.35586797       8.49206796        0       0.00000000      -0.01823551       0.26670803      -0.07525136
O        1.08543187       3.34715447       9.82164091        0       0.00000000      -0.07030779       0.18706546      -0.05835340
H        1.97053208       3.29269233      10.25467078        0       0.00000000      -0.07904825      -0.00440890      -0.01334852
H        2.52944643       1.19222151       8.29923975        0       0.00000000       0.07132412      -0.04369674       0.02076590
