31
Lattice="7.872856191053 0.0 0.0 0.0 7.872856191053 0.0 0.0 0.0 21.56695" Properties=species:S:1:pos:R:3:tags:I:1:initial_magmoms:R:1:forces:R:3 energy=-149382.955967998 pbc="T T F"
Cu       0.00000000      -0.00000000       3.58870000        3       0.00000000       0.00000000       0.00000000       0.00000000
Cu       2.62428540      -0.00000000       3.58870000        3       0.00000000       0.00000000       0.00000000       0.00000000
Cu       5.24857079      -0.00000000       3.58870000        3       0.00000000       0.00000000       0.00000000       0.00000000
Cu       0.00000000       2.62428540       3.58870000        3       0.00000000       0.00000000       0.00000000       0.00000000
Cu       2.62428540       2.62428540       3.58870000        3       0.00000000       0.00000000       0.00000000       0.00000000
Cu       5.24857079       2.62428540       3.58870000        3       0.00000000       0.00000000       0.00000000       0.00000000
Cu       0.00000000       5.24857079       3.58870000        3       0.00000000       0.00000000       0.00000000       0.00000000
Cu       2.62428540       5.24857079       3.58870000        3       0.00000000       0.00000000       0.00000000       0.00000000
Cu       5.24857079       5.24857079       3.58870000        3       0.00000000       0.00000000       0.00000000       0.00000000
Cu       1.31211342       1.31397011       5.42568063        2       0.00000000       0.00000000       0.00000000       0.00000000
Cu       3.92582671       1.30392176       5.44803675        2       0.00000000       0.00000000       0.00000000       0.00000000
Cu       6.57123570       1.30404304       5.44797887        2       0.00000000       0.00000000       0.00000000       0.00000000
Cu       1.31214371       3.93643317       5.47450036        2       0.00000000       0.00000000       0.00000000       0.00000000
Cu       3.92512754       3.93646497       5.46240904        2       0.00000000       0.00000000       0.00000000       0.00000000
Cu       6.57199121       3.93654689       5.46237341        2       0.00000000       0.00000000       0.00000000       0.00000000
Cu       1.31214107       6.55891270       5.42562024        2       0.00000000       0.00000000       0.00000000       0.00000000
Cu       3.92581724       6.56898373       5.44801105        2       0.00000000       0.00000000       0.00000000       0.00000000
Cu       6.57129252       6.56904789       5.44798864        2       0.00000000       0.00000000       0.00000000       0.00000000
Cu      -0.00446333      -0.01584438       7.19112104        1       0.00000000      -0.00116255       0.00122855      -0.00023604
Cu       2.62306873      -0.02827301       7.23218815        1       0.00000000      -0.00096421      -0.00994874      -0.01082780
Cu       5.26311665      -0.00890351       7.19117577        1       0.00000000       0.00002338      -0.00034504       0.00028363
Cu      -0.13727726       2.62403355       7.31871053        1       0.00000000      -0.00293911       0.00525042      -0.00182326
Cu       2.66705402       2.62721315       7.40373829        1       0.00000000      -0.02356731      -0.00814758       0.02524903
Cu       5.23182223       2.62056147       7.16683046        1       0.00000000      -0.00943640      -0.00118773      -0.00052484
Cu      -0.00548043       5.26169429       7.22441493        1       0.00000000       0.00216825      -0.01074644       0.01027041
Cu       2.62632119       5.25019222       7.22231731        1       0.00000000      -0.00117090      -0.00732504       0.00767073
Cu       5.24638341       5.24585364       7.19013822        1       0.00000000       0.00052971      -0.00089999      -0.00096590
C        1.20316399       3.14715192       8.55146078        0       0.00000000      -0.02413992       0.13856507      -0.02742309
O        1.13910552       3.20169649       9.86775369        0       0.00000000      -0.04857153       0.08030450      -0.01594004
H        2.03183015       3.29596696      10.26624167        0       0.00000000      -0.04915128       0.03563718       0.00096140
H        2.47356656       1.22593903       8.28313407        0       0.00000000       0.03603429      -0.03672191      -0.00799416
