31
Lattice="7.872856191053 0.0 0.0 0.0 7.872856191053 0.0 0.0 0.0 21.56695" Properties=species:S:1:pos:R:3:tags:I:1:initial_magmoms:R:1:forces:R:3 energy=-149382.895145555 pbc="T T F"
Cu       0.00000000      -0.00000000       3.58870000        3       0.00000000       0.00000000       0.00000000       0.00000000
Cu       2.62428540      -0.00000000       3.58870000        3       0.00000000       0.00000000       0.00000000       0.00000000
Cu       5.24857079      -0.00000000       3.58870000        3       0.00000000       0.00000000       0.00000000       0.00000000
Cu       0.00000000       2.62428540       3.58870000        3       0.00000000       0.00000000       0.00000000       0.00000000
Cu       2.62428540       2.62428540       3.58870000        3       0.00000000       0.00000000       0.00000000       0.00000000
Cu       5.24857079       2.62428540       3.58870000        3       0.00000000       0.00000000       0.00000000       0.00000000
Cu       0.00000000       5.24857079       3.58870000        3       0.00000000       0.00000000       0.00000000       0.00000000
Cu       2.62428540       5.24857079       3.58870000        3       0.00000000       0.00000000       0.00000000       0.00000000
Cu       5.24857079       5.24857079       3.58870000        3       0.00000000       0.00000000       0.00000000       0.00000000
Cu       1.31211342       1.31397011       5.42568063        2       0.00000000       0.00000000       0.00000000       0.00000000
Cu       3.92582671       1.30392176       5.44803675        2       0.00000000       0.00000000       0.00000000       0.00000000
Cu       6.57123570       1.30404304       5.44797887        2       0.00000000       0.00000000       0.00000000       0.00000000
Cu       1.31214371       3.93643317       5.47450036        2       0.00000000       0.00000000       0.00000000       0.00000000
Cu       3.92512754       3.93646497       5.46240904        2       0.00000000       0.00000000       0.00000000       0.00000000
Cu       6.57199121       3.93654689       5.46237341        2       0.00000000       0.00000000       0.00000000       0.00000000
Cu       1.31214107       6.55891270       5.42562024        2       0.00000000       0.00000000       0.00000000       0.00000000
Cu       3.92581724       6.56898373       5.44801105        2       0.00000000       0.00000000       0.00000000       0.00000000
Cu       6.57129252       6.56904789       5.44798864        2       0.00000000       0.00000000       0.00000000       0.00000000
Cu      -0.00213677      -0.01804800       7.19137359        1       0.00000000       0.00539239      -0.00844204      -0.00925921
Cu       2.62527436      -0.01562818       7.24736429        1       0.00000000       0.00780457      -0.03594918      -0.00706769
Cu       5.26379282      -0.00849196       7.19050245        1       0.00000000       0.01000274      -0.00150139      -0.00494574
Cu      -0.13283004       2.61563347       7.32292954        1       0.00000000      -0.01416116      -0.01115004       0.00015703
Cu       2.70255813       2.63915717       7.36496147        1       0.00000000      -0.04823581      -0.04813733       0.03720606
Cu       5.24599683       2.62249581       7.16698542        1       0.00000000      -0.02062368       0.00129886      -0.00515941
Cu      -0.00918028       5.27824828       7.20726189        1       0.00000000       0.00485595      -0.01290563       0.01038756
Cu       2.62801162       5.25990607       7.20972085        1       0.00000000      -0.00397671      -0.03186615       0.00865307
Cu       5.24575296       5.24685794       7.19147627        1       0.00000000      -0.00154043      -0.00074894      -0.00442537
C        1.24010383       2.93067624       8.59556352        0       0.00000000      -0.05396386       0.18377217      -0.00198664
O        1.21743148       3.07162051       9.89363943        0       0.00000000      -0.01541655       0.05502248      -0.00132211
H        2.11117775       3.24105835      10.26348426        0       0.00000000      -0.00929347       0.04830829      -0.01385459
H        2.42413101       1.27765077       8.29325737        0       0.00000000       0.19579182      -0.19147921      -0.05295976
