31
Lattice="7.872856191053 0.0 0.0 0.0 7.872856191053 0.0 0.0 0.0 21.56695" Properties=species:S:1:pos:R:3:tags:I:1:initial_magmoms:R:1:forces:R:3 energy=-149382.791794492 pbc="T T F"
Cu       0.00000000      -0.00000000       3.58870000        3       0.00000000       0.00000000       0.00000000       0.00000000
Cu       2.62428540      -0.00000000       3.58870000        3       0.00000000       0.00000000       0.00000000       0.00000000
Cu       5.24857079      -0.00000000       3.58870000        3       0.00000000       0.00000000       0.00000000       0.00000000
Cu       0.00000000       2.62428540       3.58870000        3       0.00000000       0.00000000       0.00000000       0.00000000
Cu       2.62428540       2.62428540       3.58870000        3       0.00000000       0.00000000       0.00000000       0.00000000
Cu       5.24857079       2.62428540       3.58870000        3       0.00000000       0.00000000       0.00000000       0.00000000
Cu       0.00000000       5.24857079       3.58870000        3       0.00000000       0.00000000       0.00000000       0.00000000
Cu       2.62428540       5.24857079       3.58870000        3       0.00000000       0.00000000       0.00000000       0.00000000
Cu       5.24857079       5.24857079       3.58870000        3       0.00000000       0.00000000       0.00000000       0.00000000
Cu       1.31211342       1.31397011       5.42568063        2       0.00000000       0.00000000       0.00000000       0.00000000
Cu       3.92582671       1.30392176       5.44803675        2       0.00000000       0.00000000       0.00000000       0.00000000
Cu       6.57123570       1.30404304       5.44797887        2       0.00000000       0.00000000       0.00000000       0.00000000
Cu       1.31214371       3.93643317       5.47450036        2       0.00000000       0.00000000       0.00000000       0.00000000
Cu       3.92512754       3.93646497       5.46240904        2       0.00000000       0.00000000       0.00000000       0.00000000
Cu       6.57199121       3.93654689       5.46237341        2       0.00000000       0.00000000       0.00000000       0.00000000
Cu       1.31214107       6.55891270       5.42562024        2       0.00000000       0.00000000       0.00000000       0.00000000
Cu       3.92581724       6.56898373       5.44801105        2       0.00000000       0.00000000       0.00000000       0.00000000
Cu       6.57129252       6.56904789       5.44798864        2       0.00000000       0.00000000       0.00000000       0.00000000
Cu      -0.00609183      -0.01104082       7.19869654        1       0.00000000       0.00036152       0.00052241       0.00027919
Cu       2.61916489       0.01098419       7.25206758        1       0.00000000       0.00035623      -0.00690435      -0.00393456
Cu       5.25600164      -0.00674326       7.19432165        1       0.00000000       0.00125881       0.00023221      -0.00058863
Cu      -0.11845495       2.62537697       7.32226712        1       0.00000000       0.00454543       0.00326610       0.00140473
Cu       2.74531222       2.67712074       7.33196876        1       0.00000000       0.00434109      -0.00525307       0.00031177
Cu       5.26451953       2.62210095       7.17057383        1       0.00000000       0.00196863       0.00072092      -0.00158549
Cu      -0.01290171       5.28937009       7.19810486        1       0.00000000      -0.00016760       0.00021951      -0.00265336
Cu       2.63071421       5.28284858       7.20334427        1       0.00000000      -0.00051351      -0.00485097      -0.00041328
Cu       5.24726573       5.24765518       7.19490292        1       0.00000000       0.00044504      -0.00025015      -0.00056913
C        1.28793827       2.76715361       8.59963389        0       0.00000000       0.00352002      -0.00594407       0.00157583
O        1.23685514       3.01471490       9.89687055        0       0.00000000       0.00946448      -0.02267199       0.00442001
H        2.12750584       3.18429211      10.27551475        0       0.00000000       0.01385294      -0.03851257       0.00239487
H        2.26604992       1.43441786       8.33759308        0       0.00000000       0.01581534      -0.01429389      -0.00762632
