31
Lattice="7.872856191053 0.0 0.0 0.0 7.872856191053 0.0 0.0 0.0 21.56695" Properties=species:S:1:pos:R:3:tags:I:1:initial_magmoms:R:1:forces:R:3 energy=-149383.148770192 pbc="T T F"
Cu       0.00000000      -0.00000000       3.58870000        3       0.00000000       0.00000000       0.00000000       0.00000000
Cu       2.62428540      -0.00000000       3.58870000        3       0.00000000       0.00000000       0.00000000       0.00000000
Cu       5.24857079      -0.00000000       3.58870000        3       0.00000000       0.00000000       0.00000000       0.00000000
Cu       0.00000000       2.62428540       3.58870000        3       0.00000000       0.00000000       0.00000000       0.00000000
Cu       2.62428540       2.62428540       3.58870000        3       0.00000000       0.00000000       0.00000000       0.00000000
Cu       5.24857079       2.62428540       3.58870000        3       0.00000000       0.00000000       0.00000000       0.00000000
Cu       0.00000000       5.24857079       3.58870000        3       0.00000000       0.00000000       0.00000000       0.00000000
Cu       2.62428540       5.24857079       3.58870000        3       0.00000000       0.00000000       0.00000000       0.00000000
Cu       5.24857079       5.24857079       3.58870000        3       0.00000000       0.00000000       0.00000000       0.00000000
Cu       1.31211342       1.31397011       5.42568063        2       0.00000000       0.00000000       0.00000000       0.00000000
Cu       3.92582671       1.30392176       5.44803675        2       0.00000000       0.00000000       0.00000000       0.00000000
Cu       6.57123570       1.30404304       5.44797887        2       0.00000000       0.00000000       0.00000000       0.00000000
Cu       1.31214371       3.93643317       5.47450036        2       0.00000000       0.00000000       0.00000000       0.00000000
Cu       3.92512754       3.93646497       5.46240904        2       0.00000000       0.00000000       0.00000000       0.00000000
Cu       6.57199121       3.93654689       5.46237341        2       0.00000000       0.00000000       0.00000000       0.00000000
Cu       1.31214107       6.55891270       5.42562024        2       0.00000000       0.00000000       0.00000000       0.00000000
Cu       3.92581724       6.56898373       5.44801105        2       0.00000000       0.00000000       0.00000000       0.00000000
Cu       6.57129252       6.56904789       5.44798864        2       0.00000000       0.00000000       0.00000000       0.00000000
Cu      -0.00077249      -0.01375954       7.20082673        1       0.00000000       0.02019893      -0.01061898       0.00742622
Cu       2.63324802      -0.02179182       7.20902851        1       0.00000000       0.05144884      -0.12414246      -0.15648780
Cu       5.25723569      -0.01134882       7.19591367        1       0.00000000       0.00588456      -0.01642161       0.00512591
Cu      -0.09441308       2.62185584       7.32885342        1       0.00000000       0.09156151      -0.01310463       0.02566061
Cu       2.74256558       2.71648076       7.25998398        1       0.00000000      -0.00864791       0.13563781      -0.26062047
Cu       5.25689401       2.61683000       7.17101335        1       0.00000000      -0.02689646      -0.01836750       0.00032286
Cu      -0.01277384       5.28511729       7.19595787        1       0.00000000       0.00092898      -0.01631626      -0.00830812
Cu       2.62838275       5.27765814       7.20479392        1       0.00000000      -0.00918426      -0.02546506       0.00630543
Cu       5.24861124       5.24071464       7.19574004        1       0.00000000       0.00516172      -0.02519172       0.00263101
C        1.32068460       2.55803973       8.62796409        0       0.00000000       0.12262560      -0.76244968       0.10421432
O        1.24209340       3.04855089       9.88605933        0       0.00000000       0.02791879       0.10375725      -0.03470043
H        2.12864219       3.21186878      10.26138088        0       0.00000000       0.01585847       0.07883164      -0.05235028
H        2.10538188       1.62041848       8.52082345        0       0.00000000      -0.56696685       0.65908439       0.65746256
