31
Lattice="7.872856191053 0.0 0.0 0.0 7.872856191053 0.0 0.0 0.0 21.56695" Properties=species:S:1:pos:R:3:tags:I:1:initial_magmoms:R:1:forces:R:3 energy=-149383.425561935 pbc="T T F"
Cu       0.00000000      -0.00000000       3.58870000        3       0.00000000       0.00000000       0.00000000       0.00000000
Cu       2.62428540      -0.00000000       3.58870000        3       0.00000000       0.00000000       0.00000000       0.00000000
Cu       5.24857079      -0.00000000       3.58870000        3       0.00000000       0.00000000       0.00000000       0.00000000
Cu       0.00000000       2.62428540       3.58870000        3       0.00000000       0.00000000       0.00000000       0.00000000
Cu       2.62428540       2.62428540       3.58870000        3       0.00000000       0.00000000       0.00000000       0.00000000
Cu       5.24857079       2.62428540       3.58870000        3       0.00000000       0.00000000       0.00000000       0.00000000
Cu       0.00000000       5.24857079       3.58870000        3       0.00000000       0.00000000       0.00000000       0.00000000
Cu       2.62428540       5.24857079       3.58870000        3       0.00000000       0.00000000       0.00000000       0.00000000
Cu       5.24857079       5.24857079       3.58870000        3       0.00000000       0.00000000       0.00000000       0.00000000
Cu       1.31211342       1.31397011       5.42568063        2       0.00000000       0.00000000       0.00000000       0.00000000
Cu       3.92582671       1.30392176       5.44803675        2       0.00000000       0.00000000       0.00000000       0.00000000
Cu       6.57123570       1.30404304       5.44797887        2       0.00000000       0.00000000       0.00000000       0.00000000
Cu       1.31214371       3.93643317       5.47450036        2       0.00000000       0.00000000       0.00000000       0.00000000
Cu       3.92512754       3.93646497       5.46240904        2       0.00000000       0.00000000       0.00000000       0.00000000
Cu       6.57199121       3.93654689       5.46237341        2       0.00000000       0.00000000       0.00000000       0.00000000
Cu       1.31214107       6.55891270       5.42562024        2       0.00000000       0.00000000       0.00000000       0.00000000
Cu       3.92581724       6.56898373       5.44801105        2       0.00000000       0.00000000       0.00000000       0.00000000
Cu       6.57129252       6.56904789       5.44798864        2       0.00000000       0.00000000       0.00000000       0.00000000
Cu      -0.00226017      -0.01195014       7.20781953        1       0.00000000      -0.00167623       0.00192352       0.01010500
Cu       2.64667551      -0.01164722       7.16665259        1       0.00000000       0.01968774       0.01276325      -0.06057284
Cu       5.25745842      -0.01689848       7.20012540        1       0.00000000       0.00112337      -0.00806497       0.00578025
Cu      -0.06645449       2.61724764       7.32563813        1       0.00000000       0.04070997      -0.00752372      -0.00288508
Cu       2.67623853       2.75283734       7.21775376        1       0.00000000      -0.09405565       0.04971991      -0.06140441
Cu       5.23542645       2.61218316       7.18038629        1       0.00000000      -0.03154104      -0.00649853       0.01287175
Cu      -0.01763802       5.28878765       7.19171100        1       0.00000000      -0.00682606       0.00411465      -0.00625776
Cu       2.63096129       5.31693552       7.19303342        1       0.00000000       0.00340932       0.05353444      -0.01657444
Cu       5.24707454       5.23556842       7.19814968        1       0.00000000      -0.00203715      -0.00762460       0.00333821
C        1.27487031       2.47345893       8.69834649        0       0.00000000      -0.06316238      -0.12663112       0.10050935
O        1.22666313       3.22628834       9.83518234        0       0.00000000      -0.01772657       0.24408876      -0.06945795
H        2.08436940       3.21140226      10.30260240        0       0.00000000      -0.05581208      -0.00449623       0.05437104
H        2.00224229       1.60860264       8.79559095        0       0.00000000      -0.14336199      -0.02117966       0.39076776
