31
Lattice="7.872856191053 0.0 0.0 0.0 7.872856191053 0.0 0.0 0.0 21.56695" Properties=species:S:1:pos:R:3:tags:I:1:initial_magmoms:R:1:forces:R:3 energy=-149383.592891171 pbc="T T F"
Cu       0.00000000      -0.00000000       3.58870000        3       0.00000000       0.00000000       0.00000000       0.00000000
Cu       2.62428540      -0.00000000       3.58870000        3       0.00000000       0.00000000       0.00000000       0.00000000
Cu       5.24857079      -0.00000000       3.58870000        3       0.00000000       0.00000000       0.00000000       0.00000000
Cu       0.00000000       2.62428540       3.58870000        3       0.00000000       0.00000000       0.00000000       0.00000000
Cu       2.62428540       2.62428540       3.58870000        3       0.00000000       0.00000000       0.00000000       0.00000000
Cu       5.24857079       2.62428540       3.58870000        3       0.00000000       0.00000000       0.00000000       0.00000000
Cu       0.00000000       5.24857079       3.58870000        3       0.00000000       0.00000000       0.00000000       0.00000000
Cu       2.62428540       5.24857079       3.58870000        3       0.00000000       0.00000000       0.00000000       0.00000000
Cu       5.24857079       5.24857079       3.58870000        3       0.00000000       0.00000000       0.00000000       0.00000000
Cu       1.31211342       1.31397011       5.42568063        2       0.00000000       0.00000000       0.00000000       0.00000000
Cu       3.92582671       1.30392176       5.44803675        2       0.00000000       0.00000000       0.00000000       0.00000000
Cu       6.57123570       1.30404304       5.44797887        2       0.00000000       0.00000000       0.00000000       0.00000000
Cu       1.31214371       3.93643317       5.47450036        2       0.00000000       0.00000000       0.00000000       0.00000000
Cu       3.92512754       3.93646497       5.46240904        2       0.00000000       0.00000000       0.00000000       0.00000000
Cu       6.57199121       3.93654689       5.46237341        2       0.00000000       0.00000000       0.00000000       0.00000000
Cu       1.31214107       6.55891270       5.42562024        2       0.00000000       0.00000000       0.00000000       0.00000000
Cu       3.92581724       6.56898373       5.44801105        2       0.00000000       0.00000000       0.00000000       0.00000000
Cu       6.57129252       6.56904789       5.44798864        2       0.00000000       0.00000000       0.00000000       0.00000000
Cu      -0.00388250      -0.01166077       7.20902391        1       0.00000000      -0.00117826       0.00003224       0.00105705
Cu       2.64797343       0.00802422       7.15487370        1       0.00000000       0.00114761       0.01519207      -0.00887362
Cu       5.26109147      -0.01742371       7.20057549        1       0.00000000       0.00292426      -0.00055902       0.00036500
Cu      -0.02571016       2.60226773       7.32179379        1       0.00000000       0.02982838      -0.01154009      -0.00239013
Cu       2.61919144       2.72486228       7.22805498        1       0.00000000      -0.04301533      -0.02108349       0.00765069
Cu       5.22697045       2.61182636       7.18624613        1       0.00000000      -0.00705575      -0.00035639       0.00435949
Cu      -0.02083256       5.29252917       7.18942112        1       0.00000000      -0.00240418       0.00249292      -0.00180111
Cu       2.63325760       5.33014373       7.18907494        1       0.00000000       0.00166328       0.01018745      -0.00312308
Cu       5.24647774       5.23783830       7.19864799        1       0.00000000      -0.00045130       0.00147609       0.00038494
C        1.28154174       2.44703783       8.76519434        0       0.00000000       0.00423659      -0.02187603       0.05020474
O        1.22541524       3.37133990       9.79082073        0       0.00000000      -0.00075211       0.10638373      -0.03188620
H        1.99517192       3.22488944      10.40624658        0       0.00000000      -0.06214864       0.00942364       0.07580741
H        1.86442753       1.55139911       9.06411649        0       0.00000000      -0.10138000      -0.04561597       0.19975135
