31
Lattice="7.872856191053 0.0 0.0 0.0 7.872856191053 0.0 0.0 0.0 21.56695" Properties=species:S:1:pos:R:3:tags:I:1:initial_magmoms:R:1:forces:R:3 energy=-149383.526404297 pbc="T T F"
Cu       0.00000000      -0.00000000       3.58870000        3       0.00000000       0.00000000       0.00000000       0.00000000
Cu       2.62428540      -0.00000000       3.58870000        3       0.00000000       0.00000000       0.00000000       0.00000000
Cu       5.24857079      -0.00000000       3.58870000        3       0.00000000       0.00000000       0.00000000       0.00000000
Cu       0.00000000       2.62428540       3.58870000        3       0.00000000       0.00000000       0.00000000       0.00000000
Cu       2.62428540       2.62428540       3.58870000        3       0.00000000       0.00000000       0.00000000       0.00000000
Cu       5.24857079       2.62428540       3.58870000        3       0.00000000       0.00000000       0.00000000       0.00000000
Cu       0.00000000       5.24857079       3.58870000        3       0.00000000       0.00000000       0.00000000       0.00000000
Cu       2.62428540       5.24857079       3.58870000        3       0.00000000       0.00000000       0.00000000       0.00000000
Cu       5.24857079       5.24857079       3.58870000        3       0.00000000       0.00000000       0.00000000       0.00000000
Cu       1.31211342       1.31397011       5.42568063        2       0.00000000       0.00000000       0.00000000       0.00000000
Cu       3.92582671       1.30392176       5.44803675        2       0.00000000       0.00000000       0.00000000       0.00000000
Cu       6.57123570       1.30404304       5.44797887        2       0.00000000       0.00000000       0.00000000       0.00000000
Cu       1.31214371       3.93643317       5.47450036        2       0.00000000       0.00000000       0.00000000       0.00000000
Cu       3.92512754       3.93646497       5.46240904        2       0.00000000       0.00000000       0.00000000       0.00000000
Cu       6.57199121       3.93654689       5.46237341        2       0.00000000       0.00000000       0.00000000       0.00000000
Cu       1.31214107       6.55891270       5.42562024        2       0.00000000       0.00000000       0.00000000       0.00000000
Cu       3.92581724       6.56898373       5.44801105        2       0.00000000       0.00000000       0.00000000       0.00000000
Cu       6.57129252       6.56904789       5.44798864        2       0.00000000       0.00000000       0.00000000       0.00000000
Cu      -0.01058648      -0.01253045       7.17848191        1       0.00000000      -0.00027442       0.00016178       0.00003860
Cu       2.62988103      -0.07109635       7.25874244        1       0.00000000      -0.00035394       0.00014526       0.00016603
Cu       5.25985239       0.00827975       7.19829704        1       0.00000000      -0.00076210       0.00036071       0.00058346
Cu      -0.01855456       2.61688582       7.25963923        1       0.00000000       0.00126172       0.00011936      -0.00004018
Cu       2.58179655       2.49608586       7.43542162        1       0.00000000       0.00054228      -0.00023626      -0.00102525
Cu       5.24857194       2.64125724       7.18181921        1       0.00000000       0.00068742       0.00027289       0.00001397
Cu       0.03116020       5.22693999       7.29360158        1       0.00000000      -0.00055886       0.00101168      -0.00110081
Cu       2.64079200       5.15119062       7.31238705        1       0.00000000       0.00110835       0.00129036      -0.00068216
Cu       5.25213064       5.27106534       7.18041216        1       0.00000000       0.00014376       0.00023077      -0.00011955
C        1.27695662       3.90060681       8.23082357        0       0.00000000       0.00077214       0.00209951      -0.00203313
O        1.15432458       3.91112789       9.60874145        0       0.00000000       0.00364877       0.00400347      -0.00239736
H        1.73758259       3.22527276      10.01042774        0       0.00000000      -0.00154743      -0.00079450      -0.00330031
H        2.86425959       1.14125727       8.36979566        0       0.00000000       0.01018258      -0.00335636      -0.00056331
