31
Lattice="7.872856191053 0.0 0.0 0.0 7.872856191053 0.0 0.0 0.0 21.56695" Properties=species:S:1:pos:R:3:tags:I:1:initial_magmoms:R:1:forces:R:3 energy=-149383.780493712 pbc="T T F"
Cu       0.00000000      -0.00000000       3.58870000        3       0.00000000       0.00000000       0.00000000       0.00000000
Cu       2.62428540      -0.00000000       3.58870000        3       0.00000000       0.00000000       0.00000000       0.00000000
Cu       5.24857079      -0.00000000       3.58870000        3       0.00000000       0.00000000       0.00000000       0.00000000
Cu       0.00000000       2.62428540       3.58870000        3       0.00000000       0.00000000       0.00000000       0.00000000
Cu       2.62428540       2.62428540       3.58870000        3       0.00000000       0.00000000       0.00000000       0.00000000
Cu       5.24857079       2.62428540       3.58870000        3       0.00000000       0.00000000       0.00000000       0.00000000
Cu       0.00000000       5.24857079       3.58870000        3       0.00000000       0.00000000       0.00000000       0.00000000
Cu       2.62428540       5.24857079       3.58870000        3       0.00000000       0.00000000       0.00000000       0.00000000
Cu       5.24857079       5.24857079       3.58870000        3       0.00000000       0.00000000       0.00000000       0.00000000
Cu       1.31211342       1.31397011       5.42568063        2       0.00000000       0.00000000       0.00000000       0.00000000
Cu       3.92582671       1.30392176       5.44803675        2       0.00000000       0.00000000       0.00000000       0.00000000
Cu       6.57123570       1.30404304       5.44797887        2       0.00000000       0.00000000       0.00000000       0.00000000
Cu       1.31214371       3.93643317       5.47450036        2       0.00000000       0.00000000       0.00000000       0.00000000
Cu       3.92512754       3.93646497       5.46240904        2       0.00000000       0.00000000       0.00000000       0.00000000
Cu       6.57199121       3.93654689       5.46237341        2       0.00000000       0.00000000       0.00000000       0.00000000
Cu       1.31214107       6.55891270       5.42562024        2       0.00000000       0.00000000       0.00000000       0.00000000
Cu       3.92581724       6.56898373       5.44801105        2       0.00000000       0.00000000       0.00000000       0.00000000
Cu       6.57129252       6.56904789       5.44798864        2       0.00000000       0.00000000       0.00000000       0.00000000
Cu      -0.01158259      -0.01750561       7.18780519        1       0.00000000       0.00255825       0.00419681      -0.00064406
Cu       2.63567898      -0.01430595       7.18661546        1       0.00000000      -0.00279402      -0.00392093      -0.00059135
Cu       5.24753940      -0.00198667       7.20732182        1       0.00000000       0.00288066      -0.00051114       0.00218801
Cu       0.00766150       2.60934039       7.33062522        1       0.00000000      -0.00131898      -0.00001774      -0.00077159
Cu       2.62352460       2.61829794       7.33447473        1       0.00000000      -0.00866616      -0.00199132       0.00001491
Cu       5.25009522       2.61683881       7.19850445        1       0.00000000      -0.00139688       0.00230191      -0.00114568
Cu      -0.01718439       5.28761994       7.19205988        1       0.00000000       0.00609711       0.00342111      -0.00007945
Cu       2.64058881       5.29038520       7.19293739        1       0.00000000      -0.00180440       0.00097265      -0.00086980
Cu       5.24951396       5.25355503       7.19780559        1       0.00000000      -0.00563586      -0.00380060       0.00056590
C        1.31642014       2.56857123       8.86424850        0       0.00000000      -0.00103461      -0.00270609      -0.00336712
O        1.29545874       3.66888282       9.69824833        0       0.00000000       0.00276651      -0.02324483      -0.01021756
H        1.27392550       3.38983528      10.63521923        0       0.00000000       0.00605161      -0.00664296      -0.00684402
H        1.32071346       1.63972734       9.44857996        0       0.00000000      -0.00534198       0.00050985      -0.01593210
