30
Lattice="7.872856191053 0.0 0.0 0.0 7.872856191053 0.0 0.0 0.0 21.56695" Properties=species:S:1:pos:R:3:tags:I:1:initial_magmoms:R:1:forces:R:3 energy=-43782.1435413872 pbc="T T F"
Cu       0.00000000      -0.00000000       3.58870000        3       0.00000000       0.00000000       0.00000000       0.00000000
Cu       2.62428540      -0.00000000       3.58870000        3       0.00000000       0.00000000       0.00000000       0.00000000
Cu       5.24857079      -0.00000000       3.58870000        3       0.00000000       0.00000000       0.00000000       0.00000000
Cu       0.00000000       2.62428540       3.58870000        3       0.00000000       0.00000000       0.00000000       0.00000000
Cu       2.62428540       2.62428540       3.58870000        3       0.00000000       0.00000000       0.00000000       0.00000000
Cu       5.24857079       2.62428540       3.58870000        3       0.00000000       0.00000000       0.00000000       0.00000000
Cu       0.00000000       5.24857079       3.58870000        3       0.00000000       0.00000000       0.00000000       0.00000000
Cu       2.62428540       5.24857079       3.58870000        3       0.00000000       0.00000000       0.00000000       0.00000000
Cu       5.24857079       5.24857079       3.58870000        3       0.00000000       0.00000000       0.00000000       0.00000000
Cu       1.31211342       1.31397011       5.42568063        2       0.00000000       0.00000000       0.00000000       0.00000000
Cu       3.92582671       1.30392176       5.44803675        2       0.00000000       0.00000000       0.00000000       0.00000000
Cu       6.57123570       1.30404304       5.44797887        2       0.00000000       0.00000000       0.00000000       0.00000000
Cu       1.31214371       3.93643317       5.47450036        2       0.00000000       0.00000000       0.00000000       0.00000000
Cu       3.92512754       3.93646497       5.46240904        2       0.00000000       0.00000000       0.00000000       0.00000000
Cu       6.57199121       3.93654689       5.46237341        2       0.00000000       0.00000000       0.00000000       0.00000000
Cu       1.31214107       6.55891270       5.42562024        2       0.00000000       0.00000000       0.00000000       0.00000000
Cu       3.92581724       6.56898373       5.44801105        2       0.00000000       0.00000000       0.00000000       0.00000000
Cu       6.57129252       6.56904789       5.44798864        2       0.00000000       0.00000000       0.00000000       0.00000000
Cu       0.00754170       0.00034935       7.17520097        1       0.00000000       0.01102997      -0.00605865       0.02891731
Cu       2.61670008       0.00026425       7.17506701        1       0.00000000      -0.01003439      -0.00661806       0.02882079
Cu       5.24856087       0.00062799       7.21710245        1       0.00000000      -0.00080937      -0.00804551       0.02811112
Cu      -0.03715884       2.65988656       7.28551458        1       0.00000000       0.00351917      -0.01829410      -0.00926335
Cu       2.66192127       2.65989360       7.28551469        1       0.00000000      -0.00388334      -0.01857117      -0.00886705
Cu       5.24880403       2.61012765       7.18980805        1       0.00000000      -0.00004683       0.03933548       0.02140642
Cu      -0.02439324       5.20708024       7.28983331        1       0.00000000      -0.01813845       0.02890531      -0.02980295
Cu       2.64882427       5.20671100       7.29028158        1       0.00000000       0.01868967       0.02990449      -0.02977019
Cu       5.24876447       5.26424078       7.18791749        1       0.00000000      -0.00096227      -0.03396202       0.02083760
C        1.31198963       3.95841114       8.36725721        0       0.00000000      -0.00021901       0.00893888       0.02495173
H        1.31033644       4.76030157       9.12606152        0       0.00000000       0.00056783      -0.02731905       0.01070178
H        1.31292060       3.05965245       9.01579569        0       0.00000000       0.00022200       0.02442435      -0.00485967
