30
Lattice="7.872856191053 0.0 0.0 0.0 7.872856191053 0.0 0.0 0.0 21.56695" Properties=species:S:1:pos:R:3:tags:I:1:initial_magmoms:R:1:forces:R:3 energy=-43781.9114443275 pbc="T T F"
Cu       0.00000000      -0.00000000       3.58870000        3       0.00000000       0.00000000       0.00000000       0.00000000
Cu       2.62428540      -0.00000000       3.58870000        3       0.00000000       0.00000000       0.00000000       0.00000000
Cu       5.24857079      -0.00000000       3.58870000        3       0.00000000       0.00000000       0.00000000       0.00000000
Cu       0.00000000       2.62428540       3.58870000        3       0.00000000       0.00000000       0.00000000       0.00000000
Cu       2.62428540       2.62428540       3.58870000        3       0.00000000       0.00000000       0.00000000       0.00000000
Cu       5.24857079       2.62428540       3.58870000        3       0.00000000       0.00000000       0.00000000       0.00000000
Cu       0.00000000       5.24857079       3.58870000        3       0.00000000       0.00000000       0.00000000       0.00000000
Cu       2.62428540       5.24857079       3.58870000        3       0.00000000       0.00000000       0.00000000       0.00000000
Cu       5.24857079       5.24857079       3.58870000        3       0.00000000       0.00000000       0.00000000       0.00000000
Cu       1.31211342       1.31397011       5.42568063        2       0.00000000       0.00000000       0.00000000       0.00000000
Cu       3.92582671       1.30392176       5.44803675        2       0.00000000       0.00000000       0.00000000       0.00000000
Cu       6.57123570       1.30404304       5.44797887        2       0.00000000       0.00000000       0.00000000       0.00000000
Cu       1.31214371       3.93643317       5.47450036        2       0.00000000       0.00000000       0.00000000       0.00000000
Cu       3.92512754       3.93646497       5.46240904        2       0.00000000       0.00000000       0.00000000       0.00000000
Cu       6.57199121       3.93654689       5.46237341        2       0.00000000       0.00000000       0.00000000       0.00000000
Cu       1.31214107       6.55891270       5.42562024        2       0.00000000       0.00000000       0.00000000       0.00000000
Cu       3.92581724       6.56898373       5.44801105        2       0.00000000       0.00000000       0.00000000       0.00000000
Cu       6.57129252       6.56904789       5.44798864        2       0.00000000       0.00000000       0.00000000       0.00000000
Cu       0.01036799       0.00031526       7.25752706        1       0.00000000      -0.02399147      -0.00479655       0.03607957
Cu       2.61408322       0.00025069       7.25769910        1       0.00000000       0.02383115      -0.00454592       0.03626051
Cu       5.24877994      -0.00004589       7.19889913        1       0.00000000       0.00007027      -0.00171814       0.02369405
Cu      -0.01915957       2.62218076       7.27537375        1       0.00000000      -0.02235985       0.02591529       0.01810023
Cu       2.64327936       2.62222819       7.27559481        1       0.00000000       0.02197509       0.03747883       0.02247987
Cu       5.24866904       2.60782663       7.18701065        1       0.00000000      -0.00159802       0.02122475       0.00630447
Cu      -0.01921805       5.25143620       7.27526229        1       0.00000000      -0.03125229      -0.02049954       0.01470262
Cu       2.64324980       5.25142299       7.27548949        1       0.00000000       0.03181877      -0.03172391       0.01858342
Cu       5.24853601       5.26530648       7.18693823        1       0.00000000      -0.00203412      -0.01986744       0.00804690
C        1.31204781       3.93698903       8.00004540        0       0.00000000      -0.00187479       0.00135933       0.00692664
H        1.31184017       3.93663460       9.10012965        0       0.00000000       0.00021934      -0.00011823       0.00986450
H        1.31218309       0.00620679       8.29351482        0       0.00000000       0.00020501      -0.00188348       0.01430283
