39
Lattice="8.18829652614 0.0 0.0 4.09414826307 7.091272805357 0.0 0.0 0.0 26.685716117216" Properties=species:S:1:pos:R:3:tags:I:1:forces:R:3 energy=-115241.861660642 pbc="F F F"
Rh      -0.00000000      -0.00000000      10.00000000       10       0.00000000       0.00000000       0.00000000
Rh       2.72943218      -0.00000000      10.00000000       10       0.00000000       0.00000000       0.00000000
Rh       5.45886435      -0.00000000      10.00000000       10       0.00000000       0.00000000       0.00000000
Rh       1.36471609       2.36375760      10.00000000       10       0.00000000       0.00000000       0.00000000
Rh       4.09414826       2.36375760      10.00000000       10       0.00000000       0.00000000       0.00000000
Rh       6.82358044       2.36375760      10.00000000       10       0.00000000       0.00000000       0.00000000
Rh       2.72943218       4.72751520      10.00000000       10       0.00000000       0.00000000       0.00000000
Rh       5.45886435       4.72751520      10.00000000       10       0.00000000       0.00000000       0.00000000
Rh       8.18829653       4.72751520      10.00000000       10       0.00000000       0.00000000       0.00000000
Rh       1.36471609       0.78791920      12.22857204        9       0.00000000       0.00000000       0.00000000
Rh       4.09414826       0.78791920      12.22857204        9       0.00000000       0.00000000       0.00000000
Rh       6.82358044       0.78791920      12.22857204        9       0.00000000       0.00000000       0.00000000
Rh       2.72943218       3.15167680      12.22857204        9       0.00000000       0.00000000       0.00000000
Rh       5.45886435       3.15167680      12.22857204        9       0.00000000       0.00000000       0.00000000
Rh       8.18829653       3.15167680      12.22857204        9       0.00000000       0.00000000       0.00000000
Rh       4.09414826       5.51543440      12.22857204        9       0.00000000       0.00000000       0.00000000
Rh       6.82358044       5.51543440      12.22857204        9       0.00000000       0.00000000       0.00000000
Rh       9.55301261       5.51543440      12.22857204        9       0.00000000       0.00000000       0.00000000
Rh       0.01326195       1.59314140      14.46667569        6       0.01166029       0.01620878      -0.00393389
Rh       2.72916818       1.57959683      14.41983046        7       0.00190751       0.01076736      -0.00771254
Rh       5.44486325       1.59335759      14.46727643        6      -0.01249267       0.01556052      -0.00564638
Rh       1.36466048       3.93358309      14.43227109        7      -0.00043852      -0.01580110       0.00534739
Rh       4.09399164       3.93346454      14.43262225        7       0.00074646      -0.01562798       0.00362093
Rh       6.82363610       3.93986559      14.42517037        7      -0.00212996       0.00021824      -0.00567420
Rh       2.72927943       6.31248579      14.40872447        8      -0.00046988      -0.01122042      -0.00834555
Rh       5.45698418       6.30356280      14.42223972        7       0.01183787      -0.00327453      -0.00819259
Rh       8.19009575       6.30352175      14.42200941        7      -0.01282262      -0.00145652      -0.00624683
Rh      -0.01020348      -0.01069661      16.62732841        4       0.00104154       0.00112064       0.00126102
Rh       2.72913349      -0.05799449      16.61423495        5       0.00105945      -0.00827322      -0.00707829
Rh       5.46871770      -0.01068573      16.62761601        4      -0.00287804       0.00105055      -0.00031288
Rh       1.37060423       2.34245847      16.71138424        3       0.00714050       0.00742180      -0.00409437
Rh       4.08639673       2.34238316      16.71324111        3      -0.00090685       0.01012026      -0.01205025
Rh       6.82285850       2.37025785      16.64411609        4       0.00093931      -0.00078869      -0.00892353
Rh       2.72930102       4.78262120      16.60428498        5      -0.00121033      -0.01123412      -0.00914252
Rh       5.46230524       4.72819882      16.63746996        4       0.00136307      -0.00269546      -0.01186206
Rh       8.18428487       4.72857365      16.63715520        4      -0.00052880      -0.00339130      -0.01014842
H        1.37618935      -0.84215044      18.79770088        0       0.00707396       0.03508397       0.00653289
C        2.70524001       1.48705005      17.74829864        0      -0.00013048      -0.00401195      -0.03764523
O        1.37098848      -0.01714892      18.28638648        0      -0.00882615      -0.02133338      -0.03780697
