39
Lattice="8.18829652614 0.0 0.0 4.09414826307 7.091272805357 0.0 0.0 0.0 26.685716117216" Properties=species:S:1:pos:R:3:tags:I:1:forces:R:3 energy=-115406.495762603 pbc="F F F"
Rh      -0.00000000      -0.00000000      10.00000000        9       0.00000000       0.00000000       0.00000000
Rh       2.72943218      -0.00000000      10.00000000        9       0.00000000       0.00000000       0.00000000
Rh       5.45886435      -0.00000000      10.00000000        9       0.00000000       0.00000000       0.00000000
Rh       1.36471609       2.36375760      10.00000000        9       0.00000000       0.00000000       0.00000000
Rh       4.09414826       2.36375760      10.00000000        9       0.00000000       0.00000000       0.00000000
Rh       6.82358044       2.36375760      10.00000000        9       0.00000000       0.00000000       0.00000000
Rh       2.72943218       4.72751520      10.00000000        9       0.00000000       0.00000000       0.00000000
Rh       5.45886435       4.72751520      10.00000000        9       0.00000000       0.00000000       0.00000000
Rh       8.18829653       4.72751520      10.00000000        9       0.00000000       0.00000000       0.00000000
Rh       1.36471609       0.78791920      12.22857204        8       0.00000000       0.00000000       0.00000000
Rh       4.09414826       0.78791920      12.22857204        8       0.00000000       0.00000000       0.00000000
Rh       6.82358044       0.78791920      12.22857204        8       0.00000000       0.00000000       0.00000000
Rh       2.72943218       3.15167680      12.22857204        8       0.00000000       0.00000000       0.00000000
Rh       5.45886435       3.15167680      12.22857204        8       0.00000000       0.00000000       0.00000000
Rh       8.18829653       3.15167680      12.22857204        8       0.00000000       0.00000000       0.00000000
Rh       4.09414826       5.51543440      12.22857204        8       0.00000000       0.00000000       0.00000000
Rh       6.82358044       5.51543440      12.22857204        8       0.00000000       0.00000000       0.00000000
Rh       9.55301261       5.51543440      12.22857204        8       0.00000000       0.00000000       0.00000000
Rh       0.00329057       1.57216270      14.42933984        7       0.00027567       0.01377745      -0.00216901
Rh       2.72816524       1.57415866      14.42698390        7      -0.00271107       0.00223895       0.00755374
Rh       5.45213487       1.57226788      14.42744384        7       0.00351357       0.00601205      -0.00101519
Rh       1.36756862       3.93282284      14.43128115        7      -0.01457815      -0.00004095       0.00165334
Rh       4.08822207       3.93457703      14.42987921        7      -0.00484090      -0.00943213      -0.00388771
Rh       6.82145425       3.93755946      14.42721596        7       0.00871244       0.00213316      -0.01263112
Rh       2.72699033       6.30198390      14.41918034        7      -0.00531198       0.00469720       0.01117714
Rh       5.45775911       6.30755985      14.43028954        7       0.01206522       0.01188329      -0.00290922
Rh       8.18440727       6.30887290      14.43038410        7      -0.00516815      -0.00881904       0.00295720
Rh      -0.03286722      -0.01599410      16.62327625        6       0.00322568       0.00230696       0.02103452
Rh       2.72226065      -0.02405999      16.73741834        4       0.01556722      -0.02205735      -0.00550357
Rh       5.48066667      -0.01598924      16.62248718        6       0.01062493      -0.00187101       0.01746274
Rh       1.33498447       2.37724041      16.74065879        4      -0.02262896       0.02126449      -0.02853199
Rh       4.11313096       2.37714906      16.73157414        4       0.01302954      -0.00077874       0.02180887
Rh       6.81697432       2.36819887      16.64744263        5       0.01739112       0.00469483      -0.00101572
Rh       2.72383409       4.75830254      16.62186299        6       0.00361162       0.00456816       0.02349651
Rh       5.45999618       4.72447801      16.64337059        5       0.00530429       0.00740126       0.00678115
Rh       8.17635821       4.72604963      16.64492516        5       0.00582090      -0.00562798      -0.00261371
H        1.89956389       1.64404836      19.66500292        0      -0.03630711      -0.00716302       0.00124896
C        2.72557251       1.60482930      17.93916962        0       0.00798434       0.00037121       0.01640670
O        2.79005242       1.59583495      19.27575673        0       0.02475253      -0.01359429      -0.01263916
