39
Lattice="8.18829652614 0.0 0.0 4.09414826307 7.091272805357 0.0 0.0 0.0 26.685716117216" Properties=species:S:1:pos:R:3:tags:I:1:initial_magmoms:R:1:forces:R:3:magmoms:R:1 energy=-115405.281125016 pbc="F F F"
Rh      -0.00000000      -0.00000000      10.00000000       10       0.00000000       0.00000000       0.00000000       0.00000000       0.00000000
Rh       2.72943218      -0.00000000      10.00000000       10       0.00000000       0.00000000       0.00000000       0.00000000       0.00000000
Rh       5.45886435      -0.00000000      10.00000000       10       0.00000000       0.00000000       0.00000000       0.00000000       0.00000000
Rh       1.36471609       2.36375760      10.00000000       10       0.00000000       0.00000000       0.00000000       0.00000000       0.00000000
Rh       4.09414826       2.36375760      10.00000000       10       0.00000000       0.00000000       0.00000000       0.00000000       0.00000000
Rh       6.82358044       2.36375760      10.00000000       10       0.00000000       0.00000000       0.00000000       0.00000000       0.00000000
Rh       2.72943218       4.72751520      10.00000000       10       0.00000000       0.00000000       0.00000000       0.00000000       0.00000000
Rh       5.45886435       4.72751520      10.00000000       10       0.00000000       0.00000000       0.00000000       0.00000000       0.00000000
Rh       8.18829653       4.72751520      10.00000000       10       0.00000000       0.00000000       0.00000000       0.00000000       0.00000000
Rh       1.36471609       0.78791920      12.22857204        9       0.00000000       0.00000000       0.00000000       0.00000000       0.00000000
Rh       4.09414826       0.78791920      12.22857204        9       0.00000000       0.00000000       0.00000000       0.00000000       0.00000000
Rh       6.82358044       0.78791920      12.22857204        9       0.00000000       0.00000000       0.00000000       0.00000000       0.00000000
Rh       2.72943218       3.15167680      12.22857204        9       0.00000000       0.00000000       0.00000000       0.00000000       0.00000000
Rh       5.45886435       3.15167680      12.22857204        9       0.00000000       0.00000000       0.00000000       0.00000000       0.00000000
Rh       8.18829653       3.15167680      12.22857204        9       0.00000000       0.00000000       0.00000000       0.00000000       0.00000000
Rh       4.09414826       5.51543440      12.22857204        9       0.00000000       0.00000000       0.00000000       0.00000000       0.00000000
Rh       6.82358044       5.51543440      12.22857204        9       0.00000000       0.00000000       0.00000000       0.00000000       0.00000000
Rh       9.55301261       5.51543440      12.22857204        9       0.00000000       0.00000000       0.00000000       0.00000000       0.00000000
Rh      -0.01499252       1.55729710      14.42905224        7       0.00000000      -0.01161483      -0.01672879       0.01606583       0.00000000
Rh       2.72499365       1.57446279      14.41807066        8       0.00000000      -0.00860803      -0.00419684       0.00641325       0.00000000
Rh       5.43706297       1.57906843      14.44246504        7       0.00000000       0.00847592      -0.00452049       0.00360050       0.00000000
Rh       1.36895078       3.94515430      14.41095778        8       0.00000000      -0.00881042      -0.00411692       0.00044445       0.00000000
Rh       4.08440119       3.92235182      14.44353864        7       0.00000000      -0.00030457       0.00587674       0.00695630       0.00000000
Rh       6.81750344       3.93820416      14.43381079        7       0.00000000      -0.00386871      -0.00781803       0.00683096       0.00000000
Rh       2.71843564       6.29935522      14.41241384        8       0.00000000       0.02039159       0.01494730       0.04418414       0.00000000
Rh       5.43479904       6.30287635      14.42995227        7       0.00000000      -0.02192729       0.00364782       0.02228052       0.00000000
Rh       8.19272563       6.30772659      14.41111934        8       0.00000000      -0.00248296      -0.00519610       0.00360913       0.00000000
Rh      -0.01091106       0.00208835      16.74787013        5       0.00000000       0.08814814       0.06075982       0.27689541       0.00000000
Rh       2.71828818      -0.07898142      16.63121111        6       0.00000000      -0.00597897       0.01691106       0.00659027       0.00000000
Rh       5.48351196      -0.01347480      16.62938425        6       0.00000000       0.02906470       0.00213533      -0.01168213       0.00000000
Rh       1.28228924       2.40682242      16.62276783        6       0.00000000       0.01431931      -0.01394386       0.00814198       0.00000000
Rh       4.04207092       2.34084936      16.83021993        1       0.00000000       0.00510470       0.00365102      -0.02825975       0.00000000
Rh       6.77682132       2.36528434      16.64754843        6       0.00000000      -0.00428569      -0.00819122      -0.00937852       0.00000000
Rh       2.72660132       4.76404846      16.62965009        6       0.00000000       0.01650958       0.02420192      -0.00917718       0.00000000
Rh       5.43386939       4.69595108      16.64750943        6       0.00000000      -0.01088772       0.00287786      -0.00784444       0.00000000
Rh       8.17903342       4.72967329      16.63760749        6       0.00000000       0.00099063       0.00088841      -0.00629973       0.00000000
H        0.87672095       0.57292336      18.35625554        0       0.00000000      -0.26902599      -0.18063450      -0.30063278       0.00000000
C        2.54653571       1.47937172      17.91321624        0       0.00000000       0.10910039       0.05921604       0.05696279       0.00000000
O        1.92572667       1.16262443      18.96660849        0       0.00000000       0.28147131       0.14242007       0.10609293       0.00000000
