40
Lattice="10.493464632808 0.0 0.0 0.0 7.870098474606 0.0 0.0 0.0 17.565" Properties=species:S:1:pos:R:3:tags:I:1:initial_magmoms:R:1:forces:R:3 energy=-58922.004583429 pbc="T T F"
Cu       9.07581885       5.84832958       7.66202529        1       0.00000000       0.02645287      -0.02485388       0.01288400
Cu       6.45128765       5.84933130       7.64475111        1       0.00000000       0.00250404      -0.02162866       0.00064329
Cu       3.84149862       5.84950400       7.62863654        1       0.00000000      -0.03941778       0.00213023      -0.00680995
Cu       9.08219402       3.21301855       7.68373870        1       0.00000000      -0.00355233       0.01529093       0.02022024
Cu       6.48835627       3.24471994       7.61407858        1       0.00000000       0.01842734       0.00443416       0.02576660
Cu       3.82680067       3.24271842       7.77959715        1       0.00000000       0.00074024       0.02578068      -0.02329049
Cu       9.07947710       0.58928870       7.67474825        1       0.00000000       0.01735203       0.00801893       0.01155114
Cu       6.48993947       0.57551497       7.61145197        1       0.00000000       0.00581044       0.01232782       0.01980126
Cu       3.82657443       0.58519799       7.78825243        1       0.00000000       0.00265352      -0.02109717      -0.00890745
Cu      10.39689960       7.15550217       5.89878265        0       0.00000000       0.00000000       0.00000000       0.00000000
Cu       7.77191623       7.15489991       5.88993766        0       0.00000000       0.00000000       0.00000000       0.00000000
Cu       5.14150234       7.15912323       5.87806367        0       0.00000000       0.00000000       0.00000000       0.00000000
Cu      10.39074974       4.52497268       5.91149212        0       0.00000000       0.00000000       0.00000000       0.00000000
Cu       7.77544885       4.52182194       5.90337617        0       0.00000000       0.00000000       0.00000000       0.00000000
Cu       5.14643948       4.53667055       5.87562461        0       0.00000000       0.00000000       0.00000000       0.00000000
Cu      10.38846297       1.91248269       5.91242345        0       0.00000000       0.00000000       0.00000000       0.00000000
Cu       7.77464749       1.91060046       5.90703593        0       0.00000000       0.00000000       0.00000000       0.00000000
Cu       5.14711382       1.91012511       5.87800602        0       0.00000000       0.00000000       0.00000000       0.00000000
Cu       9.08426592       5.83828116       4.09171992        0       0.00000000       0.00000000       0.00000000       0.00000000
Cu       6.46523863       5.84328151       4.08133421        0       0.00000000       0.00000000       0.00000000       0.00000000
Cu       3.83474955       5.84992638       4.06762540        0       0.00000000       0.00000000       0.00000000       0.00000000
Cu       9.08460071       3.21609112       4.08805242        0       0.00000000       0.00000000       0.00000000       0.00000000
Cu       6.46531637       3.21885678       4.08005591        0       0.00000000       0.00000000       0.00000000       0.00000000
Cu       3.83305259       3.22444053       4.07221341        0       0.00000000       0.00000000       0.00000000       0.00000000
Cu       9.08419395       0.59812613       4.08945270        0       0.00000000       0.00000000       0.00000000       0.00000000
Cu       6.46377514       0.59930530       4.07991207        0       0.00000000       0.00000000       0.00000000       0.00000000
Cu       3.83430169       0.60234495       4.06818026        0       0.00000000       0.00000000       0.00000000       0.00000000
Cu       1.21806030       5.84122784       7.65662776        1       0.00000000       0.00906270       0.02076349       0.01360083
Cu       1.18330064       3.23171573       7.62711381        1       0.00000000       0.00810336       0.01880162       0.01675191
Cu       1.17297965       0.58056951       7.63004187        1       0.00000000       0.02748315      -0.03161934       0.00664637
Cu       2.52814091       7.15990803       5.88681684        0       0.00000000       0.00000000       0.00000000       0.00000000
Cu       2.52610833       4.54112696       5.88353149        0       0.00000000       0.00000000       0.00000000       0.00000000
Cu       2.52424664       1.91017868       5.88383612        0       0.00000000       0.00000000       0.00000000       0.00000000
Cu       1.20676663       5.84541706       4.08697402        0       0.00000000       0.00000000       0.00000000       0.00000000
Cu       1.20615721       3.22220072       4.08925648        0       0.00000000       0.00000000       0.00000000       0.00000000
Cu       1.20770323       0.60103465       4.08619970        0       0.00000000       0.00000000       0.00000000       0.00000000
C        3.75423133       1.91665049       9.37787386        1       0.00000000      -0.03178047       0.01648373       0.00110477
O        5.87596533       1.96934884      10.67567648        0       0.00000000      -0.03241708      -0.01416579      -0.00527414
C        4.85428718       1.94462321      10.10420275        0       0.00000000       0.02087561      -0.00100009       0.03920948
H        2.82217906       1.91815952       9.93251549        0       0.00000000      -0.00080380      -0.00639561      -0.01384769
