40
Lattice="10.493464632808 0.0 0.0 0.0 7.870098474606 0.0 0.0 0.0 17.565" Properties=species:S:1:pos:R:3:tags:I:1:initial_magmoms:R:1:forces:R:3 energy=-58921.4558794552 pbc="T T F"
Cu       9.08094609       5.81956548       7.66160586        1       0.00000000       0.00331361       0.00837704      -0.03037857
Cu       6.45610834       5.84040424       7.61905409        1       0.00000000       0.00327010      -0.01582749       0.00064770
Cu       3.82690712       5.85174018       7.63099705        1       0.00000000      -0.00961461      -0.02166172      -0.00067965
Cu       9.08669263       3.24845867       7.65471841        1       0.00000000      -0.00324781      -0.00707432       0.00766846
Cu       6.45745726       3.23631643       7.72141451        1       0.00000000       0.00932139       0.00895877      -0.00541494
Cu       3.82247354       3.23547961       7.71521992        1       0.00000000      -0.01129686       0.03353260       0.01278746
Cu       9.09289633       0.57528933       7.75620745        1       0.00000000      -0.02375272       0.00074430       0.00393148
Cu       6.42766031       0.58127240       7.69726471        1       0.00000000       0.03623125      -0.00078503       0.01671651
Cu       3.81684870       0.59193941       7.74187258        1       0.00000000      -0.00619975      -0.00717191      -0.02453738
Cu      10.39689960       7.15550217       5.89878265        0       0.00000000       0.00000000       0.00000000       0.00000000
Cu       7.77191623       7.15489991       5.88993766        0       0.00000000       0.00000000       0.00000000       0.00000000
Cu       5.14150234       7.15912323       5.87806367        0       0.00000000       0.00000000       0.00000000       0.00000000
Cu      10.39074974       4.52497268       5.91149212        0       0.00000000       0.00000000       0.00000000       0.00000000
Cu       7.77544885       4.52182194       5.90337617        0       0.00000000       0.00000000       0.00000000       0.00000000
Cu       5.14643948       4.53667055       5.87562461        0       0.00000000       0.00000000       0.00000000       0.00000000
Cu      10.38846297       1.91248269       5.91242345        0       0.00000000       0.00000000       0.00000000       0.00000000
Cu       7.77464749       1.91060046       5.90703593        0       0.00000000       0.00000000       0.00000000       0.00000000
Cu       5.14711382       1.91012511       5.87800602        0       0.00000000       0.00000000       0.00000000       0.00000000
Cu       9.08426592       5.83828116       4.09171992        0       0.00000000       0.00000000       0.00000000       0.00000000
Cu       6.46523863       5.84328151       4.08133421        0       0.00000000       0.00000000       0.00000000       0.00000000
Cu       3.83474955       5.84992638       4.06762540        0       0.00000000       0.00000000       0.00000000       0.00000000
Cu       9.08460071       3.21609112       4.08805242        0       0.00000000       0.00000000       0.00000000       0.00000000
Cu       6.46531637       3.21885678       4.08005591        0       0.00000000       0.00000000       0.00000000       0.00000000
Cu       3.83305259       3.22444053       4.07221341        0       0.00000000       0.00000000       0.00000000       0.00000000
Cu       9.08419395       0.59812613       4.08945270        0       0.00000000       0.00000000       0.00000000       0.00000000
Cu       6.46377514       0.59930530       4.07991207        0       0.00000000       0.00000000       0.00000000       0.00000000
Cu       3.83430169       0.60234495       4.06818026        0       0.00000000       0.00000000       0.00000000       0.00000000
Cu       1.21919382       5.84873325       7.66423335        1       0.00000000       0.00326136       0.00000002      -0.03103518
Cu       1.22672155       3.23061462       7.64759844        1       0.00000000      -0.00403830       0.00138725      -0.00827375
Cu       1.24489392       0.59396354       7.63725399        1       0.00000000       0.00315471      -0.00290403      -0.01409404
Cu       2.52814091       7.15990803       5.88681684        0       0.00000000       0.00000000       0.00000000       0.00000000
Cu       2.52610833       4.54112696       5.88353149        0       0.00000000       0.00000000       0.00000000       0.00000000
Cu       2.52424664       1.91017868       5.88383612        0       0.00000000       0.00000000       0.00000000       0.00000000
Cu       1.20676663       5.84541706       4.08697402        0       0.00000000       0.00000000       0.00000000       0.00000000
Cu       1.20615721       3.22220072       4.08925648        0       0.00000000       0.00000000       0.00000000       0.00000000
Cu       1.20770323       0.60103465       4.08619970        0       0.00000000       0.00000000       0.00000000       0.00000000
C        5.13834178       1.91616221       8.46517709        1       0.00000000       0.00071034       0.00248397      -0.02598799
O        8.78983483       0.77715581      10.75338367        0       0.00000000       0.02349451      -0.00504041      -0.02326621
C        8.93148037       0.69210206       9.62022541        0       0.00000000       0.01358446       0.00268255      -0.03883965
H        5.15134575       1.92020559       9.56492411        0       0.00000000      -0.00139076      -0.00047350      -0.02831082
