29
Lattice="7.872856191053 0.0 0.0 0.0 7.872856191053 0.0 0.0 0.0 21.56695" Properties=species:S:1:pos:R:3:tags:I:1:initial_magmoms:R:1:forces:R:3 energy=-148923.437728393 pbc="T T F"
Cu       0.00000000      -0.00000000       3.58870000        3       0.00000000       0.00000000       0.00000000       0.00000000
Cu       2.62428540      -0.00000000       3.58870000        3       0.00000000       0.00000000       0.00000000       0.00000000
Cu       5.24857079      -0.00000000       3.58870000        3       0.00000000       0.00000000       0.00000000       0.00000000
Cu       0.00000000       2.62428540       3.58870000        3       0.00000000       0.00000000       0.00000000       0.00000000
Cu       2.62428540       2.62428540       3.58870000        3       0.00000000       0.00000000       0.00000000       0.00000000
Cu       5.24857079       2.62428540       3.58870000        3       0.00000000       0.00000000       0.00000000       0.00000000
Cu       0.00000000       5.24857079       3.58870000        3       0.00000000       0.00000000       0.00000000       0.00000000
Cu       2.62428540       5.24857079       3.58870000        3       0.00000000       0.00000000       0.00000000       0.00000000
Cu       5.24857079       5.24857079       3.58870000        3       0.00000000       0.00000000       0.00000000       0.00000000
Cu       1.31211342       1.31397011       5.42568063        2       0.00000000       0.00000000       0.00000000       0.00000000
Cu       3.92582671       1.30392176       5.44803675        2       0.00000000       0.00000000       0.00000000       0.00000000
Cu       6.57123570       1.30404304       5.44797887        2       0.00000000       0.00000000       0.00000000       0.00000000
Cu       1.31214371       3.93643317       5.47450036        2       0.00000000       0.00000000       0.00000000       0.00000000
Cu       3.92512754       3.93646497       5.46240904        2       0.00000000       0.00000000       0.00000000       0.00000000
Cu       6.57199121       3.93654689       5.46237341        2       0.00000000       0.00000000       0.00000000       0.00000000
Cu       1.31214107       6.55891270       5.42562024        2       0.00000000       0.00000000       0.00000000       0.00000000
Cu       3.92581724       6.56898373       5.44801105        2       0.00000000       0.00000000       0.00000000       0.00000000
Cu       6.57129252       6.56904789       5.44798864        2       0.00000000       0.00000000       0.00000000       0.00000000
Cu      -0.00353461       0.00090929       7.25834414        1       0.00000000       0.01978490      -0.00615985       0.01172757
Cu       2.62273084      -0.00312238       7.25844736        1       0.00000000      -0.01624500       0.01069425       0.01240275
Cu       5.24621899      -0.00091298       7.18953400        1       0.00000000       0.00140228       0.00262278       0.00094925
Cu      -0.05083877       2.59403929       7.27561093        1       0.00000000       0.00812032       0.00511290       0.00605598
Cu       2.68193051       2.59409795       7.27840808        1       0.00000000      -0.00157300      -0.00673346      -0.00276522
Cu       5.25444992       2.59890505       7.19426778        1       0.00000000      -0.01786171       0.00454802       0.00201523
Cu      -0.05178141       5.27705550       7.27542782        1       0.00000000       0.00571890      -0.00145936       0.00600198
Cu       2.67910419       5.27686044       7.27618600        1       0.00000000       0.00565257       0.01097321       0.00320231
Cu       5.24942964       5.27259844       7.19409916        1       0.00000000       0.00141925      -0.00216898       0.00249860
C        1.31614371       3.93529032       7.52932777        0       0.00000000      -0.02283448      -0.00168793      -0.00495709
H        1.30902753       0.00378677       8.27108208        0       0.00000000       0.00204274      -0.00115545       0.00341443
