42
Lattice="8.464068170803 0.0 0.0 4.232034085401 7.330098055278 0.0 0.0 0.0 26.685716117216" Properties=species:S:1:pos:R:3:tags:I:1:initial_magmoms:R:1:forces:R:3:magmoms:R:1 energy=-39957.982545805 pbc="F F F"
Pd      -0.00000000      -0.00000000      10.33678756       13       0.00000000       0.01006198       0.00236343      -0.03413733       0.00000000
Pd       2.82135606      -0.00000000      10.33678756       13       0.00000000      -0.00390268      -0.00691784      -0.02531543       0.00000000
Pd       5.64271211      -0.00000000      10.33678756       13       0.00000000      -0.00876778      -0.00106576      -0.03078190       0.00000000
Pd       1.41067803       2.44336602      10.33678756       13       0.00000000      -0.00362741       0.00380667      -0.00965769       0.00000000
Pd       4.23203409       2.44336602      10.33678756       13       0.00000000       0.00022137      -0.00102576      -0.03079264       0.00000000
Pd       7.05339014       2.44336602      10.33678756       13       0.00000000      -0.00290590       0.00210335      -0.01332398       0.00000000
Pd       2.82135606       4.88673204      10.33678756       13       0.00000000      -0.00999469      -0.00208039      -0.01544698       0.00000000
Pd       5.64271211       4.88673204      10.33678756       13       0.00000000       0.00301953       0.00269149      -0.02459202       0.00000000
Pd       8.46406817       4.88673204      10.33678756       13       0.00000000      -0.00070197       0.00156201      -0.01312064       0.00000000
Pd       1.41067803       0.81445534      12.64041514       12       0.00000000      -0.02720993       0.02683802       0.08922036       0.00000000
Pd       4.23203409       0.81445534      12.64041514       12       0.00000000       0.02520496       0.00928447       0.00678802       0.00000000
Pd       7.05339014       0.81445534      12.64041514       12       0.00000000       0.00621302       0.03415708       0.03663925       0.00000000
Pd       2.82135606       3.25782136      12.64041514       12       0.00000000      -0.02094497       0.00250693       0.10275720       0.00000000
Pd       5.64271211       3.25782136      12.64041514       12       0.00000000       0.01164949      -0.01805195       0.04549159       0.00000000
Pd       8.46406817       3.25782136      12.64041514       12       0.00000000       0.03693598      -0.02610877       0.12572936       0.00000000
Pd       4.23203409       5.70118738      12.64041514       12       0.00000000       0.00370497      -0.00158078       0.00200598       0.00000000
Pd       7.05339014       5.70118738      12.64041514       12       0.00000000       0.01375027       0.00012173       0.00563809       0.00000000
Pd       9.87474620       5.70118738      12.64041514       12       0.00000000       0.01246484      -0.02533144      -0.03141073       0.00000000
Pd       0.02963050       1.63973420      14.96667488       10       0.00000000      -0.00334341       0.00152137      -0.00926434       0.00000000
Pd       2.82708216       1.63182919      14.93782785       11       0.00000000      -0.00618008      -0.01079348      -0.01910032       0.00000000
Pd       5.64987153       1.63909262      14.94655972       11       0.00000000       0.01206732      -0.01548511      -0.02690441       0.00000000
Pd       1.42467315       4.05888303      14.95403637       11       0.00000000      -0.01501855       0.00316794      -0.01883268       0.00000000
Pd       4.24401069       4.06770836      14.92793775       11       0.00000000       0.00373599       0.00230686      -0.02629480       0.00000000
Pd       7.06559492       4.07287564      14.92736569       11       0.00000000       0.01947140      -0.00155455      -0.02061937       0.00000000
Pd       2.83581026       6.52182942      14.91965993       11       0.00000000      -0.01021306       0.00861355      -0.02363751       0.00000000
Pd       5.65015457       6.51355232      14.92012484       11       0.00000000       0.01002700       0.00857246      -0.02166879       0.00000000
Pd       8.48033419       6.51340002      14.92407499       11       0.00000000       0.00680345      -0.00193986      -0.02413944       0.00000000
Pd       0.02960460       0.00201595      17.24306654        8       0.00000000       0.00589934       0.02063222      -0.00487482       0.00000000
Pd       2.84750281      -0.02750309      17.21368426        9       0.00000000      -0.00244399       0.01631118      -0.01040568       0.00000000
Pd       5.67674484      -0.00407828      17.24104444        8       0.00000000       0.00350972       0.00569256      -0.01321365       0.00000000
Pd       1.48589151       2.45031685      17.41533318        6       0.00000000      -0.01777883      -0.00445967      -0.00708534       0.00000000
Pd       4.28058949       2.43944191      17.26252124        7       0.00000000      -0.00713774      -0.01126761      -0.00354504       0.00000000
Pd       7.09436102       2.44709142      17.24975340        8       0.00000000       0.02220740      -0.00754676      -0.01596960       0.00000000
Pd       2.84968867       4.92206441      17.21818396        9       0.00000000      -0.00607492      -0.00652068       0.00377495       0.00000000
Pd       5.67373226       4.88894586      17.23101775        8       0.00000000       0.01207237      -0.00047626      -0.00787850       0.00000000
Pd       8.49105672       4.88707454      17.24023307        8       0.00000000       0.00500119      -0.01347810      -0.00559471       0.00000000
H        1.57455022       2.34463489      21.33619791        0       0.00000000      -0.00953614      -0.00073067       0.01677334       0.00000000
H        0.29743151       1.85520263      20.17059148        0       0.00000000      -0.00850062       0.01086048       0.02538880       0.00000000
H        0.68806720       3.55891201      20.37136312        2       0.00000000      -0.02517938       0.00298425       0.01660778       0.00000000
O        3.33959494       2.46309952      19.51916305        0       0.00000000       0.00218787       0.00008979       0.01662935       0.00000000
C        2.14660515       2.48202122      19.28499244        5       0.00000000      -0.01085835       0.00419997      -0.00660151       0.00000000
C        1.10778346       2.55192255      20.37344876        2       0.00000000      -0.02588906      -0.01397237       0.00076578       0.00000000
