42
Lattice="8.464068170803 0.0 0.0 4.232034085401 7.330098055278 0.0 0.0 0.0 26.685716117216" Properties=species:S:1:pos:R:3:tags:I:1:forces:R:3 energy=-39330.2841812369 pbc="F F F"
Pd      -0.00000000      -0.00000000      10.33678756        8       0.00072861       0.00029492       0.00003337
Pd       2.82135606      -0.00000000      10.33678756        8      -0.00005686       0.00528776      -0.00992205
Pd       5.64271211      -0.00000000      10.33678756        8      -0.00067395       0.00649520      -0.00833533
Pd       1.41067803       2.44336602      10.33678756        8       0.00474767      -0.00269733      -0.01021776
Pd       4.23203409       2.44336602      10.33678756        8       0.00080402       0.00062437      -0.01602439
Pd       7.05339014       2.44336602      10.33678756        8      -0.00547698      -0.00180306      -0.01012699
Pd       2.82135606       4.88673204      10.33678756        8       0.00539339      -0.00400852      -0.00883303
Pd       5.64271211       4.88673204      10.33678756        8      -0.00431855      -0.00381507      -0.01019089
Pd       8.46406817       4.88673204      10.33678756        8      -0.00105695      -0.00064325      -0.01499400
Pd       1.41067803       0.81445534      12.64041514        7      -0.03184578      -0.01786241       0.11993197
Pd       4.23203409       0.81445534      12.64041514        7       0.00263562      -0.00501530       0.01203311
Pd       7.05339014       0.81445534      12.64041514        7       0.02978637      -0.01821007       0.12273855
Pd       2.82135606       3.25782136      12.64041514        7      -0.00331385       0.00394863       0.01072055
Pd       5.64271211       3.25782136      12.64041514        7       0.00065002      -0.00053890       0.00650448
Pd       8.46406817       3.25782136      12.64041514        7       0.00240423      -0.02402554      -0.02546423
Pd       4.23203409       5.70118738      12.64041514        7      -0.00132734       0.03581180       0.12164456
Pd       7.05339014       5.70118738      12.64041514        7      -0.01863543       0.01447868      -0.02488285
Pd       9.87474620       5.70118738      12.64041514        7       0.02012975       0.01252658      -0.01726588
Pd       0.00036841       1.61829811      14.95183745        5      -0.00448463      -0.03730235      -0.00226754
Pd       2.82135812       1.62924167      14.92024319        6       0.00055776      -0.00255725      -0.00746751
Pd       5.64250372       1.63038644      14.92089270        6       0.00402210      -0.01543192      -0.01031541
Pd       1.40948921       4.07167312      14.92280494        6       0.02343024       0.00390256       0.00285521
Pd       4.23290873       4.07132667      14.92052355        6      -0.00910970       0.01372942      -0.00692949
Pd       7.05387270       4.07251003      14.92055421        6      -0.01645836      -0.00557479       0.01084904
Pd       2.83196506       6.52207237      14.95108964        5       0.01929756       0.01061732       0.00812060
Pd       5.63327430       6.52180794      14.95132541        5      -0.03174754       0.01293915       0.00280692
Pd       8.46299757       6.51518211      14.92290659        6       0.01135975       0.01883552       0.00307921
Pd       0.00050109       0.00096635      17.43426103        1      -0.00617490      -0.00438220      -0.04194201
Pd       2.82160466      -0.00118646      17.23035040        4       0.00030903       0.01084410      -0.01219517
Pd       5.64058056      -0.00058806      17.23179438        4       0.00855804       0.00677426      -0.02258219
Pd       1.40929575       2.44536440      17.22971762        4       0.01105198      -0.00716406      -0.00822675
Pd       4.23205947       2.44390797      17.22439727        4      -0.00121453      -0.00047204      -0.00643275
Pd       7.05397255       2.44667986      17.23010224        4      -0.01031758      -0.01336870      -0.01338603
Pd       2.81939826       4.88591112      17.23217070        4       0.01069345       0.00439419      -0.02398119
Pd       5.64500446       4.88661537      17.23082113        4      -0.01482941      -0.00206732      -0.01750934
Pd       8.46309007       4.88633785      17.22738814        4       0.00383511       0.00465231       0.00121526
H       -0.00008966       1.04120895      19.81870716        1       0.00049680      -0.00423641      -0.02063633
H        0.90176100      -0.51908300      19.81886900        1       0.00049680      -0.00423641      -0.02063633
H       -0.90034469      -0.51973398      19.82003897        1       0.01976008       0.01318015      -0.03003133
O        2.83188104       1.63441765      19.70356941        0      -0.00052464       0.00050873       0.00560567
C        2.82765913       1.63234305      18.52407646        0      -0.00159680      -0.00253540      -0.00381184
C        0.00024354       0.00114435      19.50006910        0       0.00405175      -0.02410764      -0.01401054
