39
Lattice="10.493464632808 0.0 0.0 0.0 7.870098474606 0.0 0.0 0.0 17.565" Properties=species:S:1:pos:R:3:tags:I:1:initial_magmoms:R:1:forces:R:3 energy=-58905.5407958654 pbc="T T F"
Cu       9.08636327       5.84174825       7.66905576        1       0.00000000       0.00637083       0.02393530      -0.00030952
Cu       6.47104521       5.84393329       7.62406659        1       0.00000000      -0.00159491       0.02563220       0.00974300
Cu       3.82741175       5.84436303       7.62746202        1       0.00000000      -0.00264674       0.02590356       0.00627652
Cu       9.08631770       3.21742180       7.67016766        1       0.00000000       0.01821285       0.00269647       0.01876675
Cu       6.46548849       3.23044729       7.74220377        1       0.00000000      -0.01099293       0.00310184       0.02564553
Cu       3.81969325       3.23339254       7.72732336        1       0.00000000       0.01551725       0.00131057       0.03396764
Cu       9.08469091       0.58696557       7.65682397        1       0.00000000       0.00529251      -0.02934916       0.00099194
Cu       6.46735984       0.58455233       7.73549426        1       0.00000000      -0.01273850      -0.01180674       0.02609568
Cu       3.81723458       0.58606774       7.72536181        1       0.00000000       0.01120290      -0.01045148       0.03335665
Cu      10.39689960       7.15550217       5.89878265        0       0.00000000       0.00000000       0.00000000       0.00000000
Cu       7.77191623       7.15489991       5.88993766        0       0.00000000       0.00000000       0.00000000       0.00000000
Cu       5.14150234       7.15912323       5.87806367        0       0.00000000       0.00000000       0.00000000       0.00000000
Cu      10.39074974       4.52497268       5.91149212        0       0.00000000       0.00000000       0.00000000       0.00000000
Cu       7.77544885       4.52182194       5.90337617        0       0.00000000       0.00000000       0.00000000       0.00000000
Cu       5.14643948       4.53667055       5.87562461        0       0.00000000       0.00000000       0.00000000       0.00000000
Cu      10.38846297       1.91248269       5.91242345        0       0.00000000       0.00000000       0.00000000       0.00000000
Cu       7.77464749       1.91060046       5.90703593        0       0.00000000       0.00000000       0.00000000       0.00000000
Cu       5.14711382       1.91012511       5.87800602        0       0.00000000       0.00000000       0.00000000       0.00000000
Cu       9.08426592       5.83828116       4.09171992        0       0.00000000       0.00000000       0.00000000       0.00000000
Cu       6.46523863       5.84328151       4.08133421        0       0.00000000       0.00000000       0.00000000       0.00000000
Cu       3.83474955       5.84992638       4.06762540        0       0.00000000       0.00000000       0.00000000       0.00000000
Cu       9.08460071       3.21609112       4.08805242        0       0.00000000       0.00000000       0.00000000       0.00000000
Cu       6.46531637       3.21885678       4.08005591        0       0.00000000       0.00000000       0.00000000       0.00000000
Cu       3.83305259       3.22444053       4.07221341        0       0.00000000       0.00000000       0.00000000       0.00000000
Cu       9.08419395       0.59812613       4.08945270        0       0.00000000       0.00000000       0.00000000       0.00000000
Cu       6.46377514       0.59930530       4.07991207        0       0.00000000       0.00000000       0.00000000       0.00000000
Cu       3.83430169       0.60234495       4.06818026        0       0.00000000       0.00000000       0.00000000       0.00000000
Cu       1.21161317       5.84826869       7.66257006        1       0.00000000      -0.00301073       0.02501374      -0.00395941
Cu       1.21226521       3.22534278       7.65248393        1       0.00000000      -0.01614604       0.00469992       0.01510246
Cu       1.20625733       0.59997658       7.64794994        1       0.00000000       0.00230042      -0.03276545       0.00415320
Cu       2.52814091       7.15990803       5.88681684        0       0.00000000       0.00000000       0.00000000       0.00000000
Cu       2.52610833       4.54112696       5.88353149        0       0.00000000       0.00000000       0.00000000       0.00000000
Cu       2.52424664       1.91017868       5.88383612        0       0.00000000       0.00000000       0.00000000       0.00000000
Cu       1.20676663       5.84541706       4.08697402        0       0.00000000       0.00000000       0.00000000       0.00000000
Cu       1.20615721       3.22220072       4.08925648        0       0.00000000       0.00000000       0.00000000       0.00000000
Cu       1.20770323       0.60103465       4.08619970        0       0.00000000       0.00000000       0.00000000       0.00000000
C        5.14035885       1.90684988       8.64314564        1       0.00000000      -0.00819666      -0.00672217      -0.03386349
O        5.05139125       1.87464283      11.13109779        0       0.00000000      -0.02749436       0.00970626       0.03472414
C        5.09483339       1.88903642       9.96033687        0       0.00000000       0.01273757       0.01420535      -0.00449515
