39
Lattice="10.493464632808 0.0 0.0 0.0 7.870098474606 0.0 0.0 0.0 17.565" Properties=species:S:1:pos:R:3:tags:I:1:initial_magmoms:R:1:forces:R:3 energy=-58904.239071165 pbc="T T F"
Cu       9.08329147       5.83921003       7.67729659        1       0.00000000      -0.00485339      -0.00615942       0.00466737
Cu       6.46936316       5.84368621       7.64619569        1       0.00000000      -0.00143421      -0.01023940      -0.01038159
Cu       3.83006118       5.84544017       7.64059322        1       0.00000000       0.00183394      -0.01157750      -0.00749818
Cu       9.09538071       3.23057766       7.76150507        1       0.00000000      -0.00452431       0.02269221       0.00136397
Cu       6.47099664       3.28132496       7.71953836        1       0.00000000       0.01982959       0.03526471      -0.00721800
Cu       3.78724175       3.26503899       7.72223438        1       0.00000000      -0.01704247       0.04187998      -0.00807878
Cu       9.09331654       0.57037708       7.75183416        1       0.00000000       0.00106847      -0.01241736      -0.00380984
Cu       6.47118590       0.53600231       7.71303661        1       0.00000000       0.02064862      -0.02618649       0.00275997
Cu       3.78344460       0.55886032       7.72686219        1       0.00000000      -0.02294791      -0.03378640      -0.00446886
Cu      10.39689960       7.15550217       5.89878265        0       0.00000000       0.00000000       0.00000000       0.00000000
Cu       7.77191623       7.15489991       5.88993766        0       0.00000000       0.00000000       0.00000000       0.00000000
Cu       5.14150234       7.15912323       5.87806367        0       0.00000000       0.00000000       0.00000000       0.00000000
Cu      10.39074974       4.52497268       5.91149212        0       0.00000000       0.00000000       0.00000000       0.00000000
Cu       7.77544885       4.52182194       5.90337617        0       0.00000000       0.00000000       0.00000000       0.00000000
Cu       5.14643948       4.53667055       5.87562461        0       0.00000000       0.00000000       0.00000000       0.00000000
Cu      10.38846297       1.91248269       5.91242345        0       0.00000000       0.00000000       0.00000000       0.00000000
Cu       7.77464749       1.91060046       5.90703593        0       0.00000000       0.00000000       0.00000000       0.00000000
Cu       5.14711382       1.91012511       5.87800602        0       0.00000000       0.00000000       0.00000000       0.00000000
Cu       9.08426592       5.83828116       4.09171992        0       0.00000000       0.00000000       0.00000000       0.00000000
Cu       6.46523863       5.84328151       4.08133421        0       0.00000000       0.00000000       0.00000000       0.00000000
Cu       3.83474955       5.84992638       4.06762540        0       0.00000000       0.00000000       0.00000000       0.00000000
Cu       9.08460071       3.21609112       4.08805242        0       0.00000000       0.00000000       0.00000000       0.00000000
Cu       6.46531637       3.21885678       4.08005591        0       0.00000000       0.00000000       0.00000000       0.00000000
Cu       3.83305259       3.22444053       4.07221341        0       0.00000000       0.00000000       0.00000000       0.00000000
Cu       9.08419395       0.59812613       4.08945270        0       0.00000000       0.00000000       0.00000000       0.00000000
Cu       6.46377514       0.59930530       4.07991207        0       0.00000000       0.00000000       0.00000000       0.00000000
Cu       3.83430169       0.60234495       4.06818026        0       0.00000000       0.00000000       0.00000000       0.00000000
Cu       1.21697866       5.84370474       7.66987878        1       0.00000000       0.00411156      -0.00086968       0.00733564
Cu       1.23172892       3.24468963       7.64613288        1       0.00000000       0.00223191       0.01366654       0.00450576
Cu       1.22738031       0.57796969       7.64459547        1       0.00000000      -0.00386982      -0.01443017       0.00620635
Cu       2.52814091       7.15990803       5.88681684        0       0.00000000       0.00000000       0.00000000       0.00000000
Cu       2.52610833       4.54112696       5.88353149        0       0.00000000       0.00000000       0.00000000       0.00000000
Cu       2.52424664       1.91017868       5.88383612        0       0.00000000       0.00000000       0.00000000       0.00000000
Cu       1.20676663       5.84541706       4.08697402        0       0.00000000       0.00000000       0.00000000       0.00000000
Cu       1.20615721       3.22220072       4.08925648        0       0.00000000       0.00000000       0.00000000       0.00000000
Cu       1.20770323       0.60103465       4.08619970        0       0.00000000       0.00000000       0.00000000       0.00000000
C        5.13666076       1.90865330       7.95535410        1       0.00000000       0.00265202       0.00878630      -0.00730341
O        8.92365372       1.88921597      10.42756439        0       0.00000000       0.00155593       0.00305678       0.03698116
C        9.00965184       1.88866534       9.27163733        0       0.00000000       0.00143506       0.00557755      -0.04606121
