30
Lattice="7.872856191053 0.0 0.0 0.0 7.872856191053 0.0 0.0 0.0 21.56695" Properties=species:S:1:pos:R:3:tags:I:1:initial_magmoms:R:1:forces:R:3 energy=-149368.035918588 pbc="T T F"
Cu       0.00000000      -0.00000000       3.58870000        3       0.00000000       0.00000000       0.00000000       0.00000000
Cu       2.62428540      -0.00000000       3.58870000        3       0.00000000       0.00000000       0.00000000       0.00000000
Cu       5.24857079      -0.00000000       3.58870000        3       0.00000000       0.00000000       0.00000000       0.00000000
Cu       0.00000000       2.62428540       3.58870000        3       0.00000000       0.00000000       0.00000000       0.00000000
Cu       2.62428540       2.62428540       3.58870000        3       0.00000000       0.00000000       0.00000000       0.00000000
Cu       5.24857079       2.62428540       3.58870000        3       0.00000000       0.00000000       0.00000000       0.00000000
Cu       0.00000000       5.24857079       3.58870000        3       0.00000000       0.00000000       0.00000000       0.00000000
Cu       2.62428540       5.24857079       3.58870000        3       0.00000000       0.00000000       0.00000000       0.00000000
Cu       5.24857079       5.24857079       3.58870000        3       0.00000000       0.00000000       0.00000000       0.00000000
Cu       1.31211342       1.31397011       5.42568063        2       0.00000000       0.00000000       0.00000000       0.00000000
Cu       3.92582671       1.30392176       5.44803675        2       0.00000000       0.00000000       0.00000000       0.00000000
Cu       6.57123570       1.30404304       5.44797887        2       0.00000000       0.00000000       0.00000000       0.00000000
Cu       1.31214371       3.93643317       5.47450036        2       0.00000000       0.00000000       0.00000000       0.00000000
Cu       3.92512754       3.93646497       5.46240904        2       0.00000000       0.00000000       0.00000000       0.00000000
Cu       6.57199121       3.93654689       5.46237341        2       0.00000000       0.00000000       0.00000000       0.00000000
Cu       1.31214107       6.55891270       5.42562024        2       0.00000000       0.00000000       0.00000000       0.00000000
Cu       3.92581724       6.56898373       5.44801105        2       0.00000000       0.00000000       0.00000000       0.00000000
Cu       6.57129252       6.56904789       5.44798864        2       0.00000000       0.00000000       0.00000000       0.00000000
Cu       0.01809034      -0.00108246       7.19055996        1       0.00000000       0.00268637       0.00129457       0.00003690
Cu       2.63059706       0.00396065       7.27167883        1       0.00000000       0.01526357       0.00854484       0.02490294
Cu       5.25024302       0.00180088       7.26337384        1       0.00000000      -0.00469002       0.00316713       0.01226099
Cu      -0.01515413       2.59691349       7.19697444        1       0.00000000       0.00145891      -0.00186471      -0.00246391
Cu       2.60787460       2.63495377       7.29375319        1       0.00000000      -0.00542664       0.00084442       0.00510600
Cu       5.27113380       2.62851501       7.18214834        1       0.00000000      -0.00272939      -0.00232023       0.00238625
Cu      -0.01554159       5.27495140       7.19854316        1       0.00000000      -0.00052113       0.00043915       0.00036279
Cu       2.61249193       5.25058010       7.28863287        1       0.00000000      -0.00143654      -0.00277837       0.01080174
Cu       5.26664329       5.24991572       7.18211932        1       0.00000000       0.00118893      -0.00071795      -0.00142968
C        2.50119974       3.91548392       8.83651699        0       0.00000000       0.00725677       0.13035344      -0.01893387
O        2.41842876       3.88608426       9.99502842        0       0.00000000       0.14811666       0.12437565      -0.00940317
H        3.92551452       0.27578374       8.38303483        0       0.00000000       0.06892848      -0.27125375      -0.21057057
