30
Lattice="7.872856191053 0.0 0.0 0.0 7.872856191053 0.0 0.0 0.0 21.56695" Properties=species:S:1:pos:R:3:tags:I:1:initial_magmoms:R:1:forces:R:3 energy=-149367.150472737 pbc="T T F"
Cu       0.00000000      -0.00000000       3.58870000        3       0.00000000       0.00000000       0.00000000       0.00000000
Cu       2.62428540      -0.00000000       3.58870000        3       0.00000000       0.00000000       0.00000000       0.00000000
Cu       5.24857079      -0.00000000       3.58870000        3       0.00000000       0.00000000       0.00000000       0.00000000
Cu       0.00000000       2.62428540       3.58870000        3       0.00000000       0.00000000       0.00000000       0.00000000
Cu       2.62428540       2.62428540       3.58870000        3       0.00000000       0.00000000       0.00000000       0.00000000
Cu       5.24857079       2.62428540       3.58870000        3       0.00000000       0.00000000       0.00000000       0.00000000
Cu       0.00000000       5.24857079       3.58870000        3       0.00000000       0.00000000       0.00000000       0.00000000
Cu       2.62428540       5.24857079       3.58870000        3       0.00000000       0.00000000       0.00000000       0.00000000
Cu       5.24857079       5.24857079       3.58870000        3       0.00000000       0.00000000       0.00000000       0.00000000
Cu       1.31211342       1.31397011       5.42568063        2       0.00000000       0.00000000       0.00000000       0.00000000
Cu       3.92582671       1.30392176       5.44803675        2       0.00000000       0.00000000       0.00000000       0.00000000
Cu       6.57123570       1.30404304       5.44797887        2       0.00000000       0.00000000       0.00000000       0.00000000
Cu       1.31214371       3.93643317       5.47450036        2       0.00000000       0.00000000       0.00000000       0.00000000
Cu       3.92512754       3.93646497       5.46240904        2       0.00000000       0.00000000       0.00000000       0.00000000
Cu       6.57199121       3.93654689       5.46237341        2       0.00000000       0.00000000       0.00000000       0.00000000
Cu       1.31214107       6.55891270       5.42562024        2       0.00000000       0.00000000       0.00000000       0.00000000
Cu       3.92581724       6.56898373       5.44801105        2       0.00000000       0.00000000       0.00000000       0.00000000
Cu       6.57129252       6.56904789       5.44798864        2       0.00000000       0.00000000       0.00000000       0.00000000
Cu       0.01421104      -0.00065312       7.19532880        1       0.00000000       0.00284676      -0.00919161       0.00373693
Cu       2.62587963      -0.03613403       7.24355801        1       0.00000000       0.00984927      -0.00401474       0.04187072
Cu       5.26057305      -0.00762868       7.21079191        1       0.00000000      -0.00237240       0.00700200       0.01488114
Cu       0.03419332       2.60801900       7.20531383        1       0.00000000       0.01832187      -0.01782791      -0.03747559
Cu       2.73804367       2.55202893       7.39820924        1       0.00000000       0.09632263      -0.06041956       0.13488539
Cu       5.31326328       2.61808660       7.22303850        1       0.00000000       0.02654859      -0.00150224       0.02306407
Cu      -0.01705613       5.27793209       7.19445919        1       0.00000000       0.00615437      -0.00644352      -0.00368871
Cu       2.62800661       5.26055277       7.21090861        1       0.00000000       0.00997414      -0.00550654      -0.00414926
Cu       5.24315326       5.25752134       7.19125198        1       0.00000000       0.00194079       0.00786376       0.00184082
C        2.03520646       3.05904689       9.04287253        0       0.00000000      -0.05994543       0.08331506       0.01945128
O        1.81043958       3.27837735      10.16198842        0       0.00000000      -0.02948487       0.05155502       0.02138051
H        3.29415678       1.90956909       8.76595624        0       0.00000000       0.15354954      -0.15224037      -0.02134093
