30
Lattice="7.872856191053 0.0 0.0 0.0 7.872856191053 0.0 0.0 0.0 21.56695" Properties=species:S:1:pos:R:3:tags:I:1:initial_magmoms:R:1:forces:R:3 energy=-149367.252259033 pbc="T T F"
Cu       0.00000000      -0.00000000       3.58870000        3       0.00000000       0.00000000       0.00000000       0.00000000
Cu       2.62428540      -0.00000000       3.58870000        3       0.00000000       0.00000000       0.00000000       0.00000000
Cu       5.24857079      -0.00000000       3.58870000        3       0.00000000       0.00000000       0.00000000       0.00000000
Cu       0.00000000       2.62428540       3.58870000        3       0.00000000       0.00000000       0.00000000       0.00000000
Cu       2.62428540       2.62428540       3.58870000        3       0.00000000       0.00000000       0.00000000       0.00000000
Cu       5.24857079       2.62428540       3.58870000        3       0.00000000       0.00000000       0.00000000       0.00000000
Cu       0.00000000       5.24857079       3.58870000        3       0.00000000       0.00000000       0.00000000       0.00000000
Cu       2.62428540       5.24857079       3.58870000        3       0.00000000       0.00000000       0.00000000       0.00000000
Cu       5.24857079       5.24857079       3.58870000        3       0.00000000       0.00000000       0.00000000       0.00000000
Cu       1.31211342       1.31397011       5.42568063        2       0.00000000       0.00000000       0.00000000       0.00000000
Cu       3.92582671       1.30392176       5.44803675        2       0.00000000       0.00000000       0.00000000       0.00000000
Cu       6.57123570       1.30404304       5.44797887        2       0.00000000       0.00000000       0.00000000       0.00000000
Cu       1.31214371       3.93643317       5.47450036        2       0.00000000       0.00000000       0.00000000       0.00000000
Cu       3.92512754       3.93646497       5.46240904        2       0.00000000       0.00000000       0.00000000       0.00000000
Cu       6.57199121       3.93654689       5.46237341        2       0.00000000       0.00000000       0.00000000       0.00000000
Cu       1.31214107       6.55891270       5.42562024        2       0.00000000       0.00000000       0.00000000       0.00000000
Cu       3.92581724       6.56898373       5.44801105        2       0.00000000       0.00000000       0.00000000       0.00000000
Cu       6.57129252       6.56904789       5.44798864        2       0.00000000       0.00000000       0.00000000       0.00000000
Cu       0.01412086      -0.00021366       7.19685627        1       0.00000000      -0.00117557       0.00044750       0.00109189
Cu       2.64137710      -0.01071666       7.28947645        1       0.00000000       0.01934716       0.03437040       0.04970738
Cu       5.25073267       0.00136972       7.22995775        1       0.00000000      -0.01600418       0.01266623       0.02624944
Cu       0.01659139       2.60131136       7.17868796        1       0.00000000      -0.02487236      -0.00665082      -0.02657545
Cu       2.75911115       2.53697792       7.43080362        1       0.00000000       0.00132641      -0.00044437      -0.01397285
Cu       5.30549720       2.60937005       7.23657732        1       0.00000000      -0.01247467      -0.00906500       0.00623642
Cu      -0.01538032       5.27690281       7.19135957        1       0.00000000       0.00160060      -0.00156405      -0.00281847
Cu       2.63319189       5.26866673       7.21475093        1       0.00000000       0.00372847       0.00477267       0.01301489
Cu       5.24412169       5.26424292       7.18941004        1       0.00000000       0.00358989       0.00702811      -0.00314235
C        2.05025128       3.11009770       9.04759906        0       0.00000000       0.08901330       0.06456044       0.00521594
O        1.76686633       3.36123589      10.13624404        0       0.00000000      -0.03565202       0.12399810      -0.04808364
H        3.43677912       1.73521211       8.74569299        0       0.00000000       0.17489794      -0.25100729       0.02281225
