30
Lattice="7.872856191053 0.0 0.0 0.0 7.872856191053 0.0 0.0 0.0 21.56695" Properties=species:S:1:pos:R:3:tags:I:1:initial_magmoms:R:1:forces:R:3 energy=-149367.15157838 pbc="T T F"
Cu       0.00000000      -0.00000000       3.58870000        3       0.00000000       0.00000000       0.00000000       0.00000000
Cu       2.62428540      -0.00000000       3.58870000        3       0.00000000       0.00000000       0.00000000       0.00000000
Cu       5.24857079      -0.00000000       3.58870000        3       0.00000000       0.00000000       0.00000000       0.00000000
Cu       0.00000000       2.62428540       3.58870000        3       0.00000000       0.00000000       0.00000000       0.00000000
Cu       2.62428540       2.62428540       3.58870000        3       0.00000000       0.00000000       0.00000000       0.00000000
Cu       5.24857079       2.62428540       3.58870000        3       0.00000000       0.00000000       0.00000000       0.00000000
Cu       0.00000000       5.24857079       3.58870000        3       0.00000000       0.00000000       0.00000000       0.00000000
Cu       2.62428540       5.24857079       3.58870000        3       0.00000000       0.00000000       0.00000000       0.00000000
Cu       5.24857079       5.24857079       3.58870000        3       0.00000000       0.00000000       0.00000000       0.00000000
Cu       1.31211342       1.31397011       5.42568063        2       0.00000000       0.00000000       0.00000000       0.00000000
Cu       3.92582671       1.30392176       5.44803675        2       0.00000000       0.00000000       0.00000000       0.00000000
Cu       6.57123570       1.30404304       5.44797887        2       0.00000000       0.00000000       0.00000000       0.00000000
Cu       1.31214371       3.93643317       5.47450036        2       0.00000000       0.00000000       0.00000000       0.00000000
Cu       3.92512754       3.93646497       5.46240904        2       0.00000000       0.00000000       0.00000000       0.00000000
Cu       6.57199121       3.93654689       5.46237341        2       0.00000000       0.00000000       0.00000000       0.00000000
Cu       1.31214107       6.55891270       5.42562024        2       0.00000000       0.00000000       0.00000000       0.00000000
Cu       3.92581724       6.56898373       5.44801105        2       0.00000000       0.00000000       0.00000000       0.00000000
Cu       6.57129252       6.56904789       5.44798864        2       0.00000000       0.00000000       0.00000000       0.00000000
Cu       0.01378198      -0.00379359       7.19520298        1       0.00000000       0.00190526      -0.00815713       0.00223187
Cu       2.61657597      -0.04560588       7.21234761        1       0.00000000      -0.00100991      -0.01153212       0.00279335
Cu       5.25944685      -0.00656986       7.20373392        1       0.00000000      -0.00172752       0.00486353       0.00376213
Cu       0.03636340       2.60771034       7.20444980        1       0.00000000       0.01386201      -0.01163957      -0.02477809
Cu       2.69919743       2.59322340       7.30147537        1       0.00000000       0.03645708      -0.01129849       0.01095923
Cu       5.31590712       2.62175405       7.20226593        1       0.00000000       0.01930758       0.00220588      -0.00081159
Cu      -0.01628112       5.27764242       7.19573171        1       0.00000000       0.00444185      -0.00400813      -0.00151160
Cu       2.62621976       5.25486543       7.21566582        1       0.00000000       0.00497478      -0.00681798       0.00009157
Cu       5.24637135       5.25600203       7.19159688        1       0.00000000       0.00344020       0.00356047       0.00146303
C        2.23180059       2.88757211       9.07371900        0       0.00000000       0.09945360      -0.06827726       0.03126269
O        1.81091356       3.24324840      10.12201042        0       0.00000000      -0.00922061       0.00851360      -0.00744108
H        3.12997501       2.08872531       8.99665345        0       0.00000000      -0.02771049       0.03247867       0.14381568
