30
Lattice="7.872856191053 0.0 0.0 0.0 7.872856191053 0.0 0.0 0.0 21.56695" Properties=species:S:1:pos:R:3:tags:I:1:initial_magmoms:R:1:forces:R:3 energy=-149367.525078577 pbc="T T F"
Cu       0.00000000      -0.00000000       3.58870000        3       0.00000000       0.00000000       0.00000000       0.00000000
Cu       2.62428540      -0.00000000       3.58870000        3       0.00000000       0.00000000       0.00000000       0.00000000
Cu       5.24857079      -0.00000000       3.58870000        3       0.00000000       0.00000000       0.00000000       0.00000000
Cu       0.00000000       2.62428540       3.58870000        3       0.00000000       0.00000000       0.00000000       0.00000000
Cu       2.62428540       2.62428540       3.58870000        3       0.00000000       0.00000000       0.00000000       0.00000000
Cu       5.24857079       2.62428540       3.58870000        3       0.00000000       0.00000000       0.00000000       0.00000000
Cu       0.00000000       5.24857079       3.58870000        3       0.00000000       0.00000000       0.00000000       0.00000000
Cu       2.62428540       5.24857079       3.58870000        3       0.00000000       0.00000000       0.00000000       0.00000000
Cu       5.24857079       5.24857079       3.58870000        3       0.00000000       0.00000000       0.00000000       0.00000000
Cu       1.31211342       1.31397011       5.42568063        2       0.00000000       0.00000000       0.00000000       0.00000000
Cu       3.92582671       1.30392176       5.44803675        2       0.00000000       0.00000000       0.00000000       0.00000000
Cu       6.57123570       1.30404304       5.44797887        2       0.00000000       0.00000000       0.00000000       0.00000000
Cu       1.31214371       3.93643317       5.47450036        2       0.00000000       0.00000000       0.00000000       0.00000000
Cu       3.92512754       3.93646497       5.46240904        2       0.00000000       0.00000000       0.00000000       0.00000000
Cu       6.57199121       3.93654689       5.46237341        2       0.00000000       0.00000000       0.00000000       0.00000000
Cu       1.31214107       6.55891270       5.42562024        2       0.00000000       0.00000000       0.00000000       0.00000000
Cu       3.92581724       6.56898373       5.44801105        2       0.00000000       0.00000000       0.00000000       0.00000000
Cu       6.57129252       6.56904789       5.44798864        2       0.00000000       0.00000000       0.00000000       0.00000000
Cu       0.00493013      -0.00873906       7.19338204        1       0.00000000      -0.00236351      -0.00177191      -0.00125221
Cu       2.61799025      -0.00723270       7.20857818        1       0.00000000      -0.00406968       0.00165261      -0.01189743
Cu       5.24919713      -0.00056799       7.20640917        1       0.00000000       0.00201954      -0.00142558      -0.00525185
Cu      -0.01382959       2.60855950       7.20218630        1       0.00000000      -0.00553720       0.00241706       0.01113667
Cu       2.68472139       2.62345215       7.28673538        1       0.00000000      -0.00987529       0.00405717       0.00698206
Cu       5.28378154       2.61661883       7.19027882        1       0.00000000      -0.00631796       0.00250953      -0.00761564
Cu      -0.01172950       5.27240221       7.19562210        1       0.00000000       0.00191558      -0.00159128       0.00109712
Cu       2.62620794       5.25810196       7.21936323        1       0.00000000      -0.00116322       0.00132099      -0.00503896
Cu       5.25361643       5.25846129       7.19200726        1       0.00000000       0.00063193      -0.00242075       0.00145535
C        2.34887093       2.75233770       9.21626451        0       0.00000000       0.00586686      -0.01048714       0.00986176
O        1.34613974       3.00740152       9.83963089        0       0.00000000      -0.07762064      -0.10741579      -0.06743439
H        3.29786185       2.41578751       9.68742881        0       0.00000000      -0.00760236       0.12361841       0.17725030
