30
Lattice="7.872856191053 0.0 0.0 0.0 7.872856191053 0.0 0.0 0.0 21.56695" Properties=species:S:1:pos:R:3:tags:I:1:initial_magmoms:R:1:forces:R:3 energy=-149367.579937081 pbc="T T F"
Cu       0.00000000      -0.00000000       3.58870000        3       0.00000000       0.00000000       0.00000000       0.00000000
Cu       2.62428540      -0.00000000       3.58870000        3       0.00000000       0.00000000       0.00000000       0.00000000
Cu       5.24857079      -0.00000000       3.58870000        3       0.00000000       0.00000000       0.00000000       0.00000000
Cu       0.00000000       2.62428540       3.58870000        3       0.00000000       0.00000000       0.00000000       0.00000000
Cu       2.62428540       2.62428540       3.58870000        3       0.00000000       0.00000000       0.00000000       0.00000000
Cu       5.24857079       2.62428540       3.58870000        3       0.00000000       0.00000000       0.00000000       0.00000000
Cu       0.00000000       5.24857079       3.58870000        3       0.00000000       0.00000000       0.00000000       0.00000000
Cu       2.62428540       5.24857079       3.58870000        3       0.00000000       0.00000000       0.00000000       0.00000000
Cu       5.24857079       5.24857079       3.58870000        3       0.00000000       0.00000000       0.00000000       0.00000000
Cu       1.31211342       1.31397011       5.42568063        2       0.00000000       0.00000000       0.00000000       0.00000000
Cu       3.92582671       1.30392176       5.44803675        2       0.00000000       0.00000000       0.00000000       0.00000000
Cu       6.57123570       1.30404304       5.44797887        2       0.00000000       0.00000000       0.00000000       0.00000000
Cu       1.31214371       3.93643317       5.47450036        2       0.00000000       0.00000000       0.00000000       0.00000000
Cu       3.92512754       3.93646497       5.46240904        2       0.00000000       0.00000000       0.00000000       0.00000000
Cu       6.57199121       3.93654689       5.46237341        2       0.00000000       0.00000000       0.00000000       0.00000000
Cu       1.31214107       6.55891270       5.42562024        2       0.00000000       0.00000000       0.00000000       0.00000000
Cu       3.92581724       6.56898373       5.44801105        2       0.00000000       0.00000000       0.00000000       0.00000000
Cu       6.57129252       6.56904789       5.44798864        2       0.00000000       0.00000000       0.00000000       0.00000000
Cu       0.00288077      -0.00999551       7.19273053        1       0.00000000      -0.00148477      -0.00091599      -0.00048048
Cu       2.61573360      -0.00439449       7.20232187        1       0.00000000      -0.00165850       0.00204198      -0.00459023
Cu       5.25031432      -0.00117993       7.20265857        1       0.00000000       0.00082726      -0.00045256      -0.00272688
Cu      -0.01783058       2.61083377       7.21197304        1       0.00000000      -0.00291788       0.00165208       0.00710413
Cu       2.68001376       2.62215046       7.30312357        1       0.00000000      -0.00349414      -0.00087616       0.01170427
Cu       5.27823922       2.61796228       7.18622549        1       0.00000000      -0.00401858       0.00099334      -0.00299308
Cu      -0.00963870       5.27066891       7.19655952        1       0.00000000       0.00151549      -0.00125216       0.00068271
Cu       2.62587617       5.26010764       7.21323006        1       0.00000000      -0.00025419       0.00145126      -0.00442766
Cu       5.25339874       5.25665338       7.19369225        1       0.00000000      -0.00014807      -0.00132295       0.00122162
C        2.34516840       2.73485363       9.23195364        0       0.00000000      -0.00253561      -0.01236236       0.01109289
O        1.27989386       2.89946238       9.78140010        0       0.00000000      -0.04801207      -0.07797312      -0.04221597
H        3.26717783       2.54920042       9.83237698        0       0.00000000      -0.02163574       0.09606861       0.10519259
