30
Lattice="7.872856191053 0.0 0.0 0.0 7.872856191053 0.0 0.0 0.0 21.56695" Properties=species:S:1:pos:R:3:tags:I:1:initial_magmoms:R:1:forces:R:3 energy=-149367.228338606 pbc="T T F"
Cu       0.00000000      -0.00000000       3.58870000        3       0.00000000       0.00000000       0.00000000       0.00000000
Cu       2.62428540      -0.00000000       3.58870000        3       0.00000000       0.00000000       0.00000000       0.00000000
Cu       5.24857079      -0.00000000       3.58870000        3       0.00000000       0.00000000       0.00000000       0.00000000
Cu       0.00000000       2.62428540       3.58870000        3       0.00000000       0.00000000       0.00000000       0.00000000
Cu       2.62428540       2.62428540       3.58870000        3       0.00000000       0.00000000       0.00000000       0.00000000
Cu       5.24857079       2.62428540       3.58870000        3       0.00000000       0.00000000       0.00000000       0.00000000
Cu       0.00000000       5.24857079       3.58870000        3       0.00000000       0.00000000       0.00000000       0.00000000
Cu       2.62428540       5.24857079       3.58870000        3       0.00000000       0.00000000       0.00000000       0.00000000
Cu       5.24857079       5.24857079       3.58870000        3       0.00000000       0.00000000       0.00000000       0.00000000
Cu       1.31211342       1.31397011       5.42568063        2       0.00000000       0.00000000       0.00000000       0.00000000
Cu       3.92582671       1.30392176       5.44803675        2       0.00000000       0.00000000       0.00000000       0.00000000
Cu       6.57123570       1.30404304       5.44797887        2       0.00000000       0.00000000       0.00000000       0.00000000
Cu       1.31214371       3.93643317       5.47450036        2       0.00000000       0.00000000       0.00000000       0.00000000
Cu       3.92512754       3.93646497       5.46240904        2       0.00000000       0.00000000       0.00000000       0.00000000
Cu       6.57199121       3.93654689       5.46237341        2       0.00000000       0.00000000       0.00000000       0.00000000
Cu       1.31214107       6.55891270       5.42562024        2       0.00000000       0.00000000       0.00000000       0.00000000
Cu       3.92581724       6.56898373       5.44801105        2       0.00000000       0.00000000       0.00000000       0.00000000
Cu       6.57129252       6.56904789       5.44798864        2       0.00000000       0.00000000       0.00000000       0.00000000
Cu       0.01144784      -0.00464515       7.19657813        1       0.00000000      -0.00298714      -0.00110183       0.00186662
Cu       2.62391036      -0.02167550       7.23200461        1       0.00000000       0.00984073       0.03131016       0.02670333
Cu       5.24990216       0.00078160       7.21474791        1       0.00000000      -0.01254543       0.00978976       0.01471038
Cu       0.01638688       2.60415450       7.18690164        1       0.00000000      -0.02547530      -0.00486150      -0.02347267
Cu       2.68886573       2.61046341       7.29985446        1       0.00000000      -0.01382967       0.02239197      -0.00017910
Cu       5.30574983       2.61469606       7.20466627        1       0.00000000      -0.01284204      -0.00937925       0.00349198
Cu      -0.01463445       5.27563810       7.19463751        1       0.00000000       0.00221618      -0.00264274      -0.00147671
Cu       2.62887969       5.25635136       7.22282142        1       0.00000000       0.00367318       0.00201835       0.00922527
Cu       5.24923059       5.26115761       7.19066189        1       0.00000000       0.00363324       0.00690628      -0.00122849
C        2.32930220       2.82463196       9.12654147        0       0.00000000       0.12926564      -0.08147480       0.06634772
O        1.68305135       3.24391460      10.03330945        0       0.00000000      -0.16092066       0.00423732      -0.11365808
H        3.20269175       2.10231407       9.18184540        0       0.00000000       0.09225362       0.01245625       0.23576855
