30
Lattice="7.872856191053 0.0 0.0 0.0 7.872856191053 0.0 0.0 0.0 21.56695" Properties=species:S:1:pos:R:3:tags:I:1:initial_magmoms:R:1:forces:R:3 energy=-149367.148462382 pbc="T T F"
Cu       0.00000000      -0.00000000       3.58870000        3       0.00000000       0.00000000       0.00000000       0.00000000
Cu       2.62428540      -0.00000000       3.58870000        3       0.00000000       0.00000000       0.00000000       0.00000000
Cu       5.24857079      -0.00000000       3.58870000        3       0.00000000       0.00000000       0.00000000       0.00000000
Cu       0.00000000       2.62428540       3.58870000        3       0.00000000       0.00000000       0.00000000       0.00000000
Cu       2.62428540       2.62428540       3.58870000        3       0.00000000       0.00000000       0.00000000       0.00000000
Cu       5.24857079       2.62428540       3.58870000        3       0.00000000       0.00000000       0.00000000       0.00000000
Cu       0.00000000       5.24857079       3.58870000        3       0.00000000       0.00000000       0.00000000       0.00000000
Cu       2.62428540       5.24857079       3.58870000        3       0.00000000       0.00000000       0.00000000       0.00000000
Cu       5.24857079       5.24857079       3.58870000        3       0.00000000       0.00000000       0.00000000       0.00000000
Cu       1.31211342       1.31397011       5.42568063        2       0.00000000       0.00000000       0.00000000       0.00000000
Cu       3.92582671       1.30392176       5.44803675        2       0.00000000       0.00000000       0.00000000       0.00000000
Cu       6.57123570       1.30404304       5.44797887        2       0.00000000       0.00000000       0.00000000       0.00000000
Cu       1.31214371       3.93643317       5.47450036        2       0.00000000       0.00000000       0.00000000       0.00000000
Cu       3.92512754       3.93646497       5.46240904        2       0.00000000       0.00000000       0.00000000       0.00000000
Cu       6.57199121       3.93654689       5.46237341        2       0.00000000       0.00000000       0.00000000       0.00000000
Cu       1.31214107       6.55891270       5.42562024        2       0.00000000       0.00000000       0.00000000       0.00000000
Cu       3.92581724       6.56898373       5.44801105        2       0.00000000       0.00000000       0.00000000       0.00000000
Cu       6.57129252       6.56904789       5.44798864        2       0.00000000       0.00000000       0.00000000       0.00000000
Cu       0.01268573       0.00007924       7.19674454        1       0.00000000       0.00170651       0.00089244       0.00210249
Cu       2.65181141       0.00962140       7.31010225        1       0.00000000      -0.00499596      -0.01600986      -0.00291661
Cu       5.23947719       0.00911615       7.24560128        1       0.00000000       0.00896453      -0.00571861      -0.01512021
Cu       0.00143457       2.59927176       7.17043880        1       0.00000000       0.01671298       0.00058883      -0.00472965
Cu       2.74016282       2.55052635       7.38146385        1       0.00000000       0.05291777      -0.03564141       0.09021319
Cu       5.29671198       2.60607498       7.23161275        1       0.00000000       0.01081697      -0.00470173       0.02296708
Cu      -0.01494832       5.27584761       7.19071132        1       0.00000000      -0.00037864       0.00127620      -0.00138426
Cu       2.63299922       5.26701023       7.22784715        1       0.00000000       0.00491919       0.00526851      -0.02070270
Cu       5.24772905       5.26677534       7.18709659        1       0.00000000      -0.00712320       0.00207206       0.00265617
C        2.14990686       3.14766202       9.04940165        0       0.00000000      -0.17696779      -0.14708464       0.01981568
O        1.76527679       3.44482206      10.09981708        0       0.00000000      -0.10095773      -0.10109352       0.06526142
H        3.52726771       1.57239242       8.78724882        0       0.00000000      -0.10686226       0.30501533      -0.04341584
