30
Lattice="7.872856191053 0.0 0.0 0.0 7.872856191053 0.0 0.0 0.0 21.56695" Properties=species:S:1:pos:R:3:tags:I:1:initial_magmoms:R:1:forces:R:3 energy=-149367.320531191 pbc="T T F"
Cu       0.00000000      -0.00000000       3.58870000        3       0.00000000       0.00000000       0.00000000       0.00000000
Cu       2.62428540      -0.00000000       3.58870000        3       0.00000000       0.00000000       0.00000000       0.00000000
Cu       5.24857079      -0.00000000       3.58870000        3       0.00000000       0.00000000       0.00000000       0.00000000
Cu       0.00000000       2.62428540       3.58870000        3       0.00000000       0.00000000       0.00000000       0.00000000
Cu       2.62428540       2.62428540       3.58870000        3       0.00000000       0.00000000       0.00000000       0.00000000
Cu       5.24857079       2.62428540       3.58870000        3       0.00000000       0.00000000       0.00000000       0.00000000
Cu       0.00000000       5.24857079       3.58870000        3       0.00000000       0.00000000       0.00000000       0.00000000
Cu       2.62428540       5.24857079       3.58870000        3       0.00000000       0.00000000       0.00000000       0.00000000
Cu       5.24857079       5.24857079       3.58870000        3       0.00000000       0.00000000       0.00000000       0.00000000
Cu       1.31211342       1.31397011       5.42568063        2       0.00000000       0.00000000       0.00000000       0.00000000
Cu       3.92582671       1.30392176       5.44803675        2       0.00000000       0.00000000       0.00000000       0.00000000
Cu       6.57123570       1.30404304       5.44797887        2       0.00000000       0.00000000       0.00000000       0.00000000
Cu       1.31214371       3.93643317       5.47450036        2       0.00000000       0.00000000       0.00000000       0.00000000
Cu       3.92512754       3.93646497       5.46240904        2       0.00000000       0.00000000       0.00000000       0.00000000
Cu       6.57199121       3.93654689       5.46237341        2       0.00000000       0.00000000       0.00000000       0.00000000
Cu       1.31214107       6.55891270       5.42562024        2       0.00000000       0.00000000       0.00000000       0.00000000
Cu       3.92581724       6.56898373       5.44801105        2       0.00000000       0.00000000       0.00000000       0.00000000
Cu       6.57129252       6.56904789       5.44798864        2       0.00000000       0.00000000       0.00000000       0.00000000
Cu       0.00943000      -0.00559724       7.19610346        1       0.00000000      -0.00175230      -0.00081000      -0.00033228
Cu       2.62429894      -0.01170089       7.22996696        1       0.00000000       0.00050929       0.00919486      -0.00122800
Cu       5.24679159       0.00190539       7.21560038        1       0.00000000      -0.00294675       0.00115924       0.00109467
Cu       0.00039705       2.60447195       7.18465055        1       0.00000000      -0.01429229       0.00018244      -0.00251074
Cu       2.69275540       2.61743527       7.28578848        1       0.00000000       0.00295106       0.00661389      -0.01251750
Cu       5.29671136       2.61307233       7.20277712        1       0.00000000      -0.00800226      -0.00157867      -0.00152793
Cu      -0.01437892       5.27483143       7.19434951        1       0.00000000       0.00022363      -0.00071913      -0.00026460
Cu       2.62836355       5.25640585       7.22624414        1       0.00000000      -0.00040544       0.00004373       0.00328444
Cu       5.25173429       5.26200407       7.19025855        1       0.00000000       0.00224522       0.00085724      -0.00037751
C        2.34584924       2.78444860       9.18089471        0       0.00000000       0.01685933      -0.03613786       0.04851806
O        1.53853279       3.19468182       9.96321911        0       0.00000000      -0.12613172      -0.04081744      -0.06208152
H        3.27307170       2.18403039       9.35150557        0       0.00000000       0.06240527       0.06892418       0.14859801
