30
Lattice="7.872856191053 0.0 0.0 0.0 7.872856191053 0.0 0.0 0.0 21.56695" Properties=species:S:1:pos:R:3:tags:I:1:initial_magmoms:R:1:forces:R:3 energy=-149367.108578296 pbc="T T F"
Cu       0.00000000      -0.00000000       3.58870000        3       0.00000000       0.00000000       0.00000000       0.00000000
Cu       2.62428540      -0.00000000       3.58870000        3       0.00000000       0.00000000       0.00000000       0.00000000
Cu       5.24857079      -0.00000000       3.58870000        3       0.00000000       0.00000000       0.00000000       0.00000000
Cu       0.00000000       2.62428540       3.58870000        3       0.00000000       0.00000000       0.00000000       0.00000000
Cu       2.62428540       2.62428540       3.58870000        3       0.00000000       0.00000000       0.00000000       0.00000000
Cu       5.24857079       2.62428540       3.58870000        3       0.00000000       0.00000000       0.00000000       0.00000000
Cu       0.00000000       5.24857079       3.58870000        3       0.00000000       0.00000000       0.00000000       0.00000000
Cu       2.62428540       5.24857079       3.58870000        3       0.00000000       0.00000000       0.00000000       0.00000000
Cu       5.24857079       5.24857079       3.58870000        3       0.00000000       0.00000000       0.00000000       0.00000000
Cu       1.31211342       1.31397011       5.42568063        2       0.00000000       0.00000000       0.00000000       0.00000000
Cu       3.92582671       1.30392176       5.44803675        2       0.00000000       0.00000000       0.00000000       0.00000000
Cu       6.57123570       1.30404304       5.44797887        2       0.00000000       0.00000000       0.00000000       0.00000000
Cu       1.31214371       3.93643317       5.47450036        2       0.00000000       0.00000000       0.00000000       0.00000000
Cu       3.92512754       3.93646497       5.46240904        2       0.00000000       0.00000000       0.00000000       0.00000000
Cu       6.57199121       3.93654689       5.46237341        2       0.00000000       0.00000000       0.00000000       0.00000000
Cu       1.31214107       6.55891270       5.42562024        2       0.00000000       0.00000000       0.00000000       0.00000000
Cu       3.92581724       6.56898373       5.44801105        2       0.00000000       0.00000000       0.00000000       0.00000000
Cu       6.57129252       6.56904789       5.44798864        2       0.00000000       0.00000000       0.00000000       0.00000000
Cu       0.01169246       0.00710625       7.19189506        1       0.00000000       0.00004492       0.00523431      -0.00095280
Cu       2.61581852      -0.03605547       7.20192577        1       0.00000000       0.00037714       0.00972515       0.00054320
Cu       5.26380362      -0.01478030       7.19574923        1       0.00000000       0.00029184      -0.00195753      -0.00039575
Cu       0.02233522       2.62423701       7.24262144        1       0.00000000      -0.02271668       0.00543569      -0.00172115
Cu       2.65269520       2.60498231       7.27971502        1       0.00000000      -0.02623429       0.01548606      -0.02844106
Cu       5.29239251       2.62088858       7.20141660        1       0.00000000      -0.01970106      -0.00388586      -0.00112372
Cu      -0.02249435       5.28322793       7.19823068        1       0.00000000      -0.00218240       0.00504524      -0.00085073
Cu       2.61865556       5.26278271       7.21435775        1       0.00000000      -0.00172537       0.01619948      -0.00236225
Cu       5.24135029       5.24971672       7.18999904        1       0.00000000      -0.00152544      -0.00109684      -0.00151279
C        2.08074825       2.98980496       9.02551528        0       0.00000000      -0.02026190      -0.00196785      -0.02501690
O        1.84467481       3.22704502      10.14907618        0       0.00000000      -0.00155996      -0.01342955      -0.01813569
H        3.15046238       2.05122584       8.77801486        0       0.00000000      -0.01010185       0.01437804      -0.02463924
