30
Lattice="7.872856191053 0.0 0.0 0.0 7.872856191053 0.0 0.0 0.0 21.56695" Properties=species:S:1:pos:R:3:tags:I:1:initial_magmoms:R:1:forces:R:3 energy=-149367.421015802 pbc="T T F"
Cu       0.00000000      -0.00000000       3.58870000        3       0.00000000       0.00000000       0.00000000       0.00000000
Cu       2.62428540      -0.00000000       3.58870000        3       0.00000000       0.00000000       0.00000000       0.00000000
Cu       5.24857079      -0.00000000       3.58870000        3       0.00000000       0.00000000       0.00000000       0.00000000
Cu       0.00000000       2.62428540       3.58870000        3       0.00000000       0.00000000       0.00000000       0.00000000
Cu       2.62428540       2.62428540       3.58870000        3       0.00000000       0.00000000       0.00000000       0.00000000
Cu       5.24857079       2.62428540       3.58870000        3       0.00000000       0.00000000       0.00000000       0.00000000
Cu       0.00000000       5.24857079       3.58870000        3       0.00000000       0.00000000       0.00000000       0.00000000
Cu       2.62428540       5.24857079       3.58870000        3       0.00000000       0.00000000       0.00000000       0.00000000
Cu       5.24857079       5.24857079       3.58870000        3       0.00000000       0.00000000       0.00000000       0.00000000
Cu       1.31211342       1.31397011       5.42568063        2       0.00000000       0.00000000       0.00000000       0.00000000
Cu       3.92582671       1.30392176       5.44803675        2       0.00000000       0.00000000       0.00000000       0.00000000
Cu       6.57123570       1.30404304       5.44797887        2       0.00000000       0.00000000       0.00000000       0.00000000
Cu       1.31214371       3.93643317       5.47450036        2       0.00000000       0.00000000       0.00000000       0.00000000
Cu       3.92512754       3.93646497       5.46240904        2       0.00000000       0.00000000       0.00000000       0.00000000
Cu       6.57199121       3.93654689       5.46237341        2       0.00000000       0.00000000       0.00000000       0.00000000
Cu       1.31214107       6.55891270       5.42562024        2       0.00000000       0.00000000       0.00000000       0.00000000
Cu       3.92581724       6.56898373       5.44801105        2       0.00000000       0.00000000       0.00000000       0.00000000
Cu       6.57129252       6.56904789       5.44798864        2       0.00000000       0.00000000       0.00000000       0.00000000
Cu       0.00717918      -0.00705519       7.19456029        1       0.00000000      -0.00435906      -0.00281504      -0.00299696
Cu       2.62184408      -0.00884654       7.21981097        1       0.00000000      -0.00466677       0.00564030      -0.01954775
Cu       5.24728477       0.00077520       7.21139437        1       0.00000000       0.00087258      -0.00216549      -0.00808283
Cu      -0.00857345       2.60624713       7.19154393        1       0.00000000      -0.01761489       0.00341210       0.01314572
Cu       2.69407008       2.61972380       7.27976478        1       0.00000000       0.00324245       0.00426576      -0.01223530
Cu       5.28981548       2.61424078       7.19748631        1       0.00000000      -0.01343084       0.00218044      -0.01009647
Cu      -0.01357339       5.27393580       7.19457058        1       0.00000000       0.00151175      -0.00171057       0.00038579
Cu       2.62730485       5.25680454       7.22422800        1       0.00000000      -0.00204971       0.00074575      -0.00376974
Cu       5.25303436       5.26077022       7.19060149        1       0.00000000       0.00255089      -0.00232722       0.00061495
C        2.34351981       2.76231066       9.20683527        0       0.00000000      -0.00517780      -0.04361140       0.05138138
O        1.42002131       3.11026150       9.90395556        0       0.00000000      -0.23228807      -0.16283443      -0.11466427
H        3.30564249       2.29741938       9.51862157        0       0.00000000       0.06525884       0.21981393       0.32373387
