30
Lattice="7.872856191053 0.0 0.0 0.0 7.872856191053 0.0 0.0 0.0 21.56695" Properties=species:S:1:pos:R:3:tags:I:1:initial_magmoms:R:1:forces:R:3 energy=-149367.73981443 pbc="T T F"
Cu       0.00000000      -0.00000000       3.58870000        3       0.00000000       0.00000000       0.00000000       0.00000000
Cu       2.62428540      -0.00000000       3.58870000        3       0.00000000       0.00000000       0.00000000       0.00000000
Cu       5.24857079      -0.00000000       3.58870000        3       0.00000000       0.00000000       0.00000000       0.00000000
Cu       0.00000000       2.62428540       3.58870000        3       0.00000000       0.00000000       0.00000000       0.00000000
Cu       2.62428540       2.62428540       3.58870000        3       0.00000000       0.00000000       0.00000000       0.00000000
Cu       5.24857079       2.62428540       3.58870000        3       0.00000000       0.00000000       0.00000000       0.00000000
Cu       0.00000000       5.24857079       3.58870000        3       0.00000000       0.00000000       0.00000000       0.00000000
Cu       2.62428540       5.24857079       3.58870000        3       0.00000000       0.00000000       0.00000000       0.00000000
Cu       5.24857079       5.24857079       3.58870000        3       0.00000000       0.00000000       0.00000000       0.00000000
Cu       1.31211342       1.31397011       5.42568063        2       0.00000000       0.00000000       0.00000000       0.00000000
Cu       3.92582671       1.30392176       5.44803675        2       0.00000000       0.00000000       0.00000000       0.00000000
Cu       6.57123570       1.30404304       5.44797887        2       0.00000000       0.00000000       0.00000000       0.00000000
Cu       1.31214371       3.93643317       5.47450036        2       0.00000000       0.00000000       0.00000000       0.00000000
Cu       3.92512754       3.93646497       5.46240904        2       0.00000000       0.00000000       0.00000000       0.00000000
Cu       6.57199121       3.93654689       5.46237341        2       0.00000000       0.00000000       0.00000000       0.00000000
Cu       1.31214107       6.55891270       5.42562024        2       0.00000000       0.00000000       0.00000000       0.00000000
Cu       3.92581724       6.56898373       5.44801105        2       0.00000000       0.00000000       0.00000000       0.00000000
Cu       6.57129252       6.56904789       5.44798864        2       0.00000000       0.00000000       0.00000000       0.00000000
Cu       0.01542063      -0.00215650       7.19058232        1       0.00000000       0.00578277      -0.00057517      -0.00220415
Cu       2.62225812      -0.00087742       7.25612167        1       0.00000000      -0.03735189      -0.02848278      -0.05669289
Cu       5.25160714       0.00058887       7.25496510        1       0.00000000       0.02668672      -0.01678583      -0.01617952
Cu      -0.01644280       2.59853797       7.19854413        1       0.00000000      -0.00088543      -0.00130094       0.00980658
Cu       2.61511241       2.63126116       7.28832080        1       0.00000000      -0.04854419       0.04671251       0.00621183
Cu       5.27405286       2.62973405       7.18073565        1       0.00000000      -0.00924009       0.01061132      -0.01440747
Cu      -0.01502982       5.27453397       7.19794066        1       0.00000000      -0.00138745       0.00091472       0.00423647
Cu       2.61434548       5.25296938       7.27854207        1       0.00000000      -0.01029129      -0.00305917       0.01952065
Cu       5.26517993       5.25117741       7.18329566        1       0.00000000       0.00824822      -0.00984772      -0.00063544
C        2.48619716       3.78603701       8.86041181        0       0.00000000       0.11878180       0.33690989      -0.09546013
O        2.27782765       3.76742448      10.00250756        0       0.00000000       0.29052633       0.21291841      -0.03860855
H        3.85396769       0.53775745       8.57146878        0       0.00000000       0.19597648      -0.55904152      -0.20560238
