30
Lattice="7.872856191053 0.0 0.0 0.0 7.872856191053 0.0 0.0 0.0 21.56695" Properties=species:S:1:pos:R:3:tags:I:1:initial_magmoms:R:1:forces:R:3 energy=-149367.610752495 pbc="T T F"
Cu       0.00000000      -0.00000000       3.58870000        3       0.00000000       0.00000000       0.00000000       0.00000000
Cu       2.62428540      -0.00000000       3.58870000        3       0.00000000       0.00000000       0.00000000       0.00000000
Cu       5.24857079      -0.00000000       3.58870000        3       0.00000000       0.00000000       0.00000000       0.00000000
Cu       0.00000000       2.62428540       3.58870000        3       0.00000000       0.00000000       0.00000000       0.00000000
Cu       2.62428540       2.62428540       3.58870000        3       0.00000000       0.00000000       0.00000000       0.00000000
Cu       5.24857079       2.62428540       3.58870000        3       0.00000000       0.00000000       0.00000000       0.00000000
Cu       0.00000000       5.24857079       3.58870000        3       0.00000000       0.00000000       0.00000000       0.00000000
Cu       2.62428540       5.24857079       3.58870000        3       0.00000000       0.00000000       0.00000000       0.00000000
Cu       5.24857079       5.24857079       3.58870000        3       0.00000000       0.00000000       0.00000000       0.00000000
Cu       1.31211342       1.31397011       5.42568063        2       0.00000000       0.00000000       0.00000000       0.00000000
Cu       3.92582671       1.30392176       5.44803675        2       0.00000000       0.00000000       0.00000000       0.00000000
Cu       6.57123570       1.30404304       5.44797887        2       0.00000000       0.00000000       0.00000000       0.00000000
Cu       1.31214371       3.93643317       5.47450036        2       0.00000000       0.00000000       0.00000000       0.00000000
Cu       3.92512754       3.93646497       5.46240904        2       0.00000000       0.00000000       0.00000000       0.00000000
Cu       6.57199121       3.93654689       5.46237341        2       0.00000000       0.00000000       0.00000000       0.00000000
Cu       1.31214107       6.55891270       5.42562024        2       0.00000000       0.00000000       0.00000000       0.00000000
Cu       3.92581724       6.56898373       5.44801105        2       0.00000000       0.00000000       0.00000000       0.00000000
Cu       6.57129252       6.56904789       5.44798864        2       0.00000000       0.00000000       0.00000000       0.00000000
Cu       0.01397561      -0.00201596       7.19113006        1       0.00000000       0.00173472      -0.00102340      -0.00168165
Cu       2.63154502       0.00620281       7.27020305        1       0.00000000      -0.02042142      -0.01632655      -0.03603651
Cu       5.24496513       0.00476537       7.25897762        1       0.00000000       0.01169683      -0.00819376      -0.00793309
Cu      -0.01622645       2.59886515       7.19610965        1       0.00000000      -0.00219681       0.00008706       0.00829420
Cu       2.62720157       2.61963207       7.28675614        1       0.00000000      -0.03172316       0.02775087      -0.00881052
Cu       5.27635816       2.62709665       7.18431388        1       0.00000000      -0.00493669       0.00773775      -0.01244173
Cu      -0.01468353       5.27430552       7.19688536        1       0.00000000      -0.00051819       0.00013438       0.00241078
Cu       2.61690996       5.25373418       7.27366580        1       0.00000000      -0.00594611      -0.00361209       0.01166957
Cu       5.26312502       5.25363029       7.18345613        1       0.00000000       0.00505208      -0.00562712      -0.00024923
C        2.45660037       3.70194152       8.88422775        0       0.00000000       0.07151868       0.16235201      -0.05080660
O        2.20525587       3.71417953      10.01210631        0       0.00000000       0.13068518       0.07670067      -0.02883430
H        3.80504391       0.67741508       8.62303842        0       0.00000000       0.08907490      -0.24303445      -0.03805490
