30
Lattice="7.872856191053 0.0 0.0 0.0 7.872856191053 0.0 0.0 0.0 21.56695" Properties=species:S:1:pos:R:3:tags:I:1:initial_magmoms:R:1:forces:R:3 energy=-149367.541946549 pbc="T T F"
Cu       0.00000000      -0.00000000       3.58870000        3       0.00000000       0.00000000       0.00000000       0.00000000
Cu       2.62428540      -0.00000000       3.58870000        3       0.00000000       0.00000000       0.00000000       0.00000000
Cu       5.24857079      -0.00000000       3.58870000        3       0.00000000       0.00000000       0.00000000       0.00000000
Cu       0.00000000       2.62428540       3.58870000        3       0.00000000       0.00000000       0.00000000       0.00000000
Cu       2.62428540       2.62428540       3.58870000        3       0.00000000       0.00000000       0.00000000       0.00000000
Cu       5.24857079       2.62428540       3.58870000        3       0.00000000       0.00000000       0.00000000       0.00000000
Cu       0.00000000       5.24857079       3.58870000        3       0.00000000       0.00000000       0.00000000       0.00000000
Cu       2.62428540       5.24857079       3.58870000        3       0.00000000       0.00000000       0.00000000       0.00000000
Cu       5.24857079       5.24857079       3.58870000        3       0.00000000       0.00000000       0.00000000       0.00000000
Cu       1.31211342       1.31397011       5.42568063        2       0.00000000       0.00000000       0.00000000       0.00000000
Cu       3.92582671       1.30392176       5.44803675        2       0.00000000       0.00000000       0.00000000       0.00000000
Cu       6.57123570       1.30404304       5.44797887        2       0.00000000       0.00000000       0.00000000       0.00000000
Cu       1.31214371       3.93643317       5.47450036        2       0.00000000       0.00000000       0.00000000       0.00000000
Cu       3.92512754       3.93646497       5.46240904        2       0.00000000       0.00000000       0.00000000       0.00000000
Cu       6.57199121       3.93654689       5.46237341        2       0.00000000       0.00000000       0.00000000       0.00000000
Cu       1.31214107       6.55891270       5.42562024        2       0.00000000       0.00000000       0.00000000       0.00000000
Cu       3.92581724       6.56898373       5.44801105        2       0.00000000       0.00000000       0.00000000       0.00000000
Cu       6.57129252       6.56904789       5.44798864        2       0.00000000       0.00000000       0.00000000       0.00000000
Cu       0.01297014      -0.00142521       7.19209838        1       0.00000000       0.00121469      -0.00116025      -0.00217018
Cu       2.64336276       0.01565219       7.29104102        1       0.00000000      -0.01574947      -0.01188849      -0.03136026
Cu       5.23817487       0.00951526       7.26360743        1       0.00000000       0.00456472      -0.00483750       0.00177371
Cu      -0.01496674       2.59881523       7.19133252        1       0.00000000      -0.00462514       0.00021299       0.01119772
Cu       2.64546251       2.60361966       7.29176042        1       0.00000000      -0.04524724       0.03196854      -0.03428023
Cu       5.27919744       2.62263689       7.19147386        1       0.00000000      -0.00771719       0.00948568      -0.01843007
Cu      -0.01438405       5.27422557       7.19549507        1       0.00000000      -0.00045781      -0.00025969       0.00309607
Cu       2.62033597       5.25579124       7.26697807        1       0.00000000      -0.00787329      -0.00949063       0.02317562
Cu       5.26021575       5.25687605       7.18359540        1       0.00000000       0.00716897      -0.00654726      -0.00121116
C        2.41542627       3.60847514       8.91344525        0       0.00000000       0.10941416       0.22359726      -0.07035053
O        2.13007843       3.67005004      10.02872981        0       0.00000000       0.18783785       0.11051837      -0.03956363
H        3.75373914       0.81726663       8.64486515        0       0.00000000       0.11708078      -0.34765456      -0.05970825
