30
Lattice="7.872856191053 0.0 0.0 0.0 7.872856191053 0.0 0.0 0.0 21.56695" Properties=species:S:1:pos:R:3:tags:I:1:initial_magmoms:R:1:forces:R:3 energy=-149367.4459326 pbc="T T F"
Cu       0.00000000      -0.00000000       3.58870000        3       0.00000000       0.00000000       0.00000000       0.00000000
Cu       2.62428540      -0.00000000       3.58870000        3       0.00000000       0.00000000       0.00000000       0.00000000
Cu       5.24857079      -0.00000000       3.58870000        3       0.00000000       0.00000000       0.00000000       0.00000000
Cu       0.00000000       2.62428540       3.58870000        3       0.00000000       0.00000000       0.00000000       0.00000000
Cu       2.62428540       2.62428540       3.58870000        3       0.00000000       0.00000000       0.00000000       0.00000000
Cu       5.24857079       2.62428540       3.58870000        3       0.00000000       0.00000000       0.00000000       0.00000000
Cu       0.00000000       5.24857079       3.58870000        3       0.00000000       0.00000000       0.00000000       0.00000000
Cu       2.62428540       5.24857079       3.58870000        3       0.00000000       0.00000000       0.00000000       0.00000000
Cu       5.24857079       5.24857079       3.58870000        3       0.00000000       0.00000000       0.00000000       0.00000000
Cu       1.31211342       1.31397011       5.42568063        2       0.00000000       0.00000000       0.00000000       0.00000000
Cu       3.92582671       1.30392176       5.44803675        2       0.00000000       0.00000000       0.00000000       0.00000000
Cu       6.57123570       1.30404304       5.44797887        2       0.00000000       0.00000000       0.00000000       0.00000000
Cu       1.31214371       3.93643317       5.47450036        2       0.00000000       0.00000000       0.00000000       0.00000000
Cu       3.92512754       3.93646497       5.46240904        2       0.00000000       0.00000000       0.00000000       0.00000000
Cu       6.57199121       3.93654689       5.46237341        2       0.00000000       0.00000000       0.00000000       0.00000000
Cu       1.31214107       6.55891270       5.42562024        2       0.00000000       0.00000000       0.00000000       0.00000000
Cu       3.92581724       6.56898373       5.44801105        2       0.00000000       0.00000000       0.00000000       0.00000000
Cu       6.57129252       6.56904789       5.44798864        2       0.00000000       0.00000000       0.00000000       0.00000000
Cu       0.01246381      -0.00094652       7.19299667        1       0.00000000       0.00015050      -0.00044344      -0.00070700
Cu       2.64989294       0.02058233       7.30402421        1       0.00000000      -0.00454303      -0.00283073      -0.00971019
Cu       5.23626946       0.01152468       7.26288685        1       0.00000000       0.00079808      -0.00117363       0.00130946
Cu      -0.01306044       2.59872866       7.18670405        1       0.00000000      -0.00221527       0.00014388       0.00408031
Cu       2.66417067       2.59039299       7.30586591        1       0.00000000      -0.01607198       0.01021784      -0.01750852
Cu       5.28238810       2.61871235       7.19908784        1       0.00000000      -0.00295156       0.00317901      -0.00698434
Cu      -0.01419431       5.27433192       7.19421445        1       0.00000000      -0.00007894      -0.00019018       0.00113449
Cu       2.62359323       5.25970946       7.25740038        1       0.00000000      -0.00269777      -0.00341194       0.00847320
Cu       5.25725169       5.25958632       7.18409615        1       0.00000000       0.00259046      -0.00208180      -0.00046794
C        2.37022518       3.51589372       8.94258361        0       0.00000000       0.04443415       0.07367340      -0.02426421
O        2.05227190       3.62424561      10.04507030        0       0.00000000       0.05993807       0.03554048      -0.01233692
H        3.70524434       0.96124889       8.66976025        0       0.00000000       0.03689946      -0.11456563      -0.01058038
