30
Lattice="7.872856191053 0.0 0.0 0.0 7.872856191053 0.0 0.0 0.0 21.56695" Properties=species:S:1:pos:R:3:tags:I:1:initial_magmoms:R:1:forces:R:3 energy=-149367.428849413 pbc="T T F"
Cu       0.00000000      -0.00000000       3.58870000        3       0.00000000       0.00000000       0.00000000       0.00000000
Cu       2.62428540      -0.00000000       3.58870000        3       0.00000000       0.00000000       0.00000000       0.00000000
Cu       5.24857079      -0.00000000       3.58870000        3       0.00000000       0.00000000       0.00000000       0.00000000
Cu       0.00000000       2.62428540       3.58870000        3       0.00000000       0.00000000       0.00000000       0.00000000
Cu       2.62428540       2.62428540       3.58870000        3       0.00000000       0.00000000       0.00000000       0.00000000
Cu       5.24857079       2.62428540       3.58870000        3       0.00000000       0.00000000       0.00000000       0.00000000
Cu       0.00000000       5.24857079       3.58870000        3       0.00000000       0.00000000       0.00000000       0.00000000
Cu       2.62428540       5.24857079       3.58870000        3       0.00000000       0.00000000       0.00000000       0.00000000
Cu       5.24857079       5.24857079       3.58870000        3       0.00000000       0.00000000       0.00000000       0.00000000
Cu       1.31211342       1.31397011       5.42568063        2       0.00000000       0.00000000       0.00000000       0.00000000
Cu       3.92582671       1.30392176       5.44803675        2       0.00000000       0.00000000       0.00000000       0.00000000
Cu       6.57123570       1.30404304       5.44797887        2       0.00000000       0.00000000       0.00000000       0.00000000
Cu       1.31214371       3.93643317       5.47450036        2       0.00000000       0.00000000       0.00000000       0.00000000
Cu       3.92512754       3.93646497       5.46240904        2       0.00000000       0.00000000       0.00000000       0.00000000
Cu       6.57199121       3.93654689       5.46237341        2       0.00000000       0.00000000       0.00000000       0.00000000
Cu       1.31214107       6.55891270       5.42562024        2       0.00000000       0.00000000       0.00000000       0.00000000
Cu       3.92581724       6.56898373       5.44801105        2       0.00000000       0.00000000       0.00000000       0.00000000
Cu       6.57129252       6.56904789       5.44798864        2       0.00000000       0.00000000       0.00000000       0.00000000
Cu       0.01227004      -0.00037197       7.19390372        1       0.00000000       0.00168846       0.00131844      -0.00157589
Cu       2.65579333       0.02430960       7.31663996        1       0.00000000       0.00894116       0.01450507       0.02516014
Cu       5.23519736       0.01306847       7.26129887        1       0.00000000      -0.00303513       0.00447091       0.01778903
Cu      -0.01023303       2.59853650       7.18146995        1       0.00000000      -0.00129125      -0.00164507       0.00781530
Cu       2.68474513       2.57722751       7.32821348        1       0.00000000      -0.02847886      -0.00000366       0.01039100
Cu       5.28615314       2.61463104       7.20803773        1       0.00000000      -0.00584616       0.00627636      -0.00895786
Cu      -0.01409169       5.27457404       7.19276090        1       0.00000000       0.00056002      -0.00044050       0.00136303
Cu       2.62705044       5.26407640       7.24658680        1       0.00000000      -0.00332145      -0.00006271       0.01216137
Cu       5.25393426       5.26226048       7.18468687        1       0.00000000       0.00188369      -0.00359013      -0.00177220
C        2.31347893       3.42202806       8.97343706        0       0.00000000       0.06229502       0.29869141      -0.09965445
O        1.97604435       3.57913330      10.06106409        0       0.00000000       0.27010579       0.14886626       0.01388639
H        3.65814064       1.10696149       8.68252737        0       0.00000000       0.11365801      -0.48792931      -0.29409939
