30
Lattice="7.872856191053 0.0 0.0 0.0 7.872856191053 0.0 0.0 0.0 21.56695" Properties=species:S:1:pos:R:3:tags:I:1:initial_magmoms:R:1:forces:R:3 energy=-149367.216647983 pbc="T T F"
Cu       0.00000000      -0.00000000       3.58870000        3       0.00000000       0.00000000       0.00000000       0.00000000
Cu       2.62428540      -0.00000000       3.58870000        3       0.00000000       0.00000000       0.00000000       0.00000000
Cu       5.24857079      -0.00000000       3.58870000        3       0.00000000       0.00000000       0.00000000       0.00000000
Cu       0.00000000       2.62428540       3.58870000        3       0.00000000       0.00000000       0.00000000       0.00000000
Cu       2.62428540       2.62428540       3.58870000        3       0.00000000       0.00000000       0.00000000       0.00000000
Cu       5.24857079       2.62428540       3.58870000        3       0.00000000       0.00000000       0.00000000       0.00000000
Cu       0.00000000       5.24857079       3.58870000        3       0.00000000       0.00000000       0.00000000       0.00000000
Cu       2.62428540       5.24857079       3.58870000        3       0.00000000       0.00000000       0.00000000       0.00000000
Cu       5.24857079       5.24857079       3.58870000        3       0.00000000       0.00000000       0.00000000       0.00000000
Cu       1.31211342       1.31397011       5.42568063        2       0.00000000       0.00000000       0.00000000       0.00000000
Cu       3.92582671       1.30392176       5.44803675        2       0.00000000       0.00000000       0.00000000       0.00000000
Cu       6.57123570       1.30404304       5.44797887        2       0.00000000       0.00000000       0.00000000       0.00000000
Cu       1.31214371       3.93643317       5.47450036        2       0.00000000       0.00000000       0.00000000       0.00000000
Cu       3.92512754       3.93646497       5.46240904        2       0.00000000       0.00000000       0.00000000       0.00000000
Cu       6.57199121       3.93654689       5.46237341        2       0.00000000       0.00000000       0.00000000       0.00000000
Cu       1.31214107       6.55891270       5.42562024        2       0.00000000       0.00000000       0.00000000       0.00000000
Cu       3.92581724       6.56898373       5.44801105        2       0.00000000       0.00000000       0.00000000       0.00000000
Cu       6.57129252       6.56904789       5.44798864        2       0.00000000       0.00000000       0.00000000       0.00000000
Cu       0.01176449      -0.00076494       7.19437489        1       0.00000000      -0.00008379      -0.00136277      -0.00413593
Cu       2.65313392       0.01998329       7.30915250        1       0.00000000      -0.00418971       0.00694104      -0.00826819
Cu       5.23611280       0.01173210       7.25596758        1       0.00000000       0.00384072      -0.00079551       0.00916578
Cu      -0.00983870       2.59902829       7.17912811        1       0.00000000      -0.00990260      -0.00003430       0.02015419
Cu       2.69330685       2.57719290       7.32522059        1       0.00000000      -0.06796471       0.03214542      -0.03320965
Cu       5.28791270       2.61274946       7.21073446        1       0.00000000      -0.01059773       0.01437332      -0.03066168
Cu      -0.01425759       5.27470633       7.19234883        1       0.00000000       0.00139951      -0.00136488       0.00321442
Cu       2.62805354       5.26412097       7.24290081        1       0.00000000      -0.00806641      -0.00043203       0.01538259
Cu       5.25335979       5.26333896       7.18521941        1       0.00000000       0.00685258      -0.00784509      -0.00162985
C        2.29469178       3.33257147       9.00326910        0       0.00000000       0.17705208       0.36166504      -0.11227004
O        1.89511753       3.53445853      10.05697116        0       0.00000000       0.26690955       0.12300676      -0.04180632
H        3.62403272       1.25316454       8.77044168        0       0.00000000       0.14066983      -0.54064942      -0.12419812
