30
Lattice="7.872856191053 0.0 0.0 0.0 7.872856191053 0.0 0.0 0.0 21.56695" Properties=species:S:1:pos:R:3:tags:I:1:initial_magmoms:R:1:forces:R:3 energy=-149367.123221498 pbc="T T F"
Cu       0.00000000      -0.00000000       3.58870000        3       0.00000000       0.00000000       0.00000000       0.00000000
Cu       2.62428540      -0.00000000       3.58870000        3       0.00000000       0.00000000       0.00000000       0.00000000
Cu       5.24857079      -0.00000000       3.58870000        3       0.00000000       0.00000000       0.00000000       0.00000000
Cu       0.00000000       2.62428540       3.58870000        3       0.00000000       0.00000000       0.00000000       0.00000000
Cu       2.62428540       2.62428540       3.58870000        3       0.00000000       0.00000000       0.00000000       0.00000000
Cu       5.24857079       2.62428540       3.58870000        3       0.00000000       0.00000000       0.00000000       0.00000000
Cu       0.00000000       5.24857079       3.58870000        3       0.00000000       0.00000000       0.00000000       0.00000000
Cu       2.62428540       5.24857079       3.58870000        3       0.00000000       0.00000000       0.00000000       0.00000000
Cu       5.24857079       5.24857079       3.58870000        3       0.00000000       0.00000000       0.00000000       0.00000000
Cu       1.31211342       1.31397011       5.42568063        2       0.00000000       0.00000000       0.00000000       0.00000000
Cu       3.92582671       1.30392176       5.44803675        2       0.00000000       0.00000000       0.00000000       0.00000000
Cu       6.57123570       1.30404304       5.44797887        2       0.00000000       0.00000000       0.00000000       0.00000000
Cu       1.31214371       3.93643317       5.47450036        2       0.00000000       0.00000000       0.00000000       0.00000000
Cu       3.92512754       3.93646497       5.46240904        2       0.00000000       0.00000000       0.00000000       0.00000000
Cu       6.57199121       3.93654689       5.46237341        2       0.00000000       0.00000000       0.00000000       0.00000000
Cu       1.31214107       6.55891270       5.42562024        2       0.00000000       0.00000000       0.00000000       0.00000000
Cu       3.92581724       6.56898373       5.44801105        2       0.00000000       0.00000000       0.00000000       0.00000000
Cu       6.57129252       6.56904789       5.44798864        2       0.00000000       0.00000000       0.00000000       0.00000000
Cu       0.01178133      -0.00037538       7.19557614        1       0.00000000      -0.00028449      -0.00014866      -0.00041649
Cu       2.65432330       0.01794363       7.31147299        1       0.00000000       0.00086686       0.00286816       0.00055072
Cu       5.23500190       0.01195442       7.25327382        1       0.00000000      -0.00149197       0.00096199       0.00269689
Cu      -0.00697920       2.59904316       7.17327496        1       0.00000000      -0.00287331      -0.00008984       0.00106250
Cu       2.71302817       2.56790393       7.33471659        1       0.00000000      -0.00952498       0.00603061      -0.01559610
Cu       5.29098724       2.60857185       7.21962077        1       0.00000000      -0.00197018       0.00093784      -0.00418839
Cu      -0.01466295       5.27509975       7.19141526        1       0.00000000       0.00008996      -0.00024637       0.00025530
Cu       2.63039437       5.26423589       7.23843577        1       0.00000000      -0.00092348      -0.00090400       0.00365561
Cu       5.25137585       5.26561849       7.18569405        1       0.00000000       0.00125958      -0.00044115      -0.00048347
C        2.24342109       3.22706332       9.03607502        0       0.00000000       0.03195613       0.02983773      -0.00550233
O        1.81709850       3.49853361      10.06895953        0       0.00000000       0.02022522       0.01901264      -0.01041195
H        3.58305354       1.41089452       8.80732604        0       0.00000000       0.01989408      -0.05887973       0.00440975
