51
Lattice="7.351477842562 0.0 0.0 0.0 -11.623707075379 0.0 0.0 1.162370707538 -20.922672735682" Properties=species:S:1:pos:R:3:tags:I:1:initial_magmoms:R:1:forces:R:3 energy=-78279.7395884629 pbc="T T T"
Cu       3.67744292      -4.63224122      -9.01876728        1       0.00000000      -0.01124291       0.01334462      -0.01805668
Cu       0.01066249      -1.20208642      -7.93236710        1       0.00000000      -0.00327832      -0.01188724      -0.00649810
Cu       3.67452532      -2.34354393     -10.19725201        1       0.00000000       0.00283894      -0.00053339      -0.01592204
Cu       1.84020775      -2.91604308      -8.44413300        1       0.00000000      -0.00818922      -0.00845725      -0.01276136
Cu       1.83971030      -5.25898186      -7.44017739        1       0.00000000      -0.00099239       0.02943932      -0.00058384
Cu       1.83785917      -0.61820279      -9.62995487        1       0.00000000       0.00211851      -0.01175202      -0.01272663
Cu       3.67544600      -3.50024038     -12.50360565        2       0.00000000       0.00000000       0.00000000       0.00000000
Cu       3.67540148      -0.01100329     -11.36170276        2       0.00000000       0.00000000       0.00000000       0.00000000
Cu       3.67571163      -1.16651536     -13.58947883        2       0.00000000       0.00000000       0.00000000       0.00000000
Cu       1.83767699      -1.77552060     -11.95874462        2       0.00000000       0.00000000       0.00000000       0.00000000
Cu       1.83798197      -4.08189250     -10.76591887        2       0.00000000       0.00000000       0.00000000       0.00000000
Cu       1.83830938       0.56032890     -13.05379616        2       0.00000000       0.00000000       0.00000000       0.00000000
Cu       7.34940882      -4.63176529      -9.01892510        1       0.00000000       0.00982773       0.01456289      -0.01557412
Cu       3.66419387      -1.20380165      -7.93054690        1       0.00000000       0.00515906       0.00217913      -0.00339086
Cu       7.35229090      -2.34330254     -10.19934119        1       0.00000000      -0.00316132      -0.00519945      -0.00358678
Cu       5.51044990      -2.93245976      -8.42863073        1       0.00000000       0.00803047       0.00722163      -0.01525145
Cu       5.51096182      -5.25128635      -7.41867329        1       0.00000000       0.00881983      -0.00742803       0.00400205
Cu       5.51322902      -0.62343932      -9.63043439        1       0.00000000      -0.00233046      -0.01538275      -0.01495973
Cu       7.35179035      -3.49985449     -12.50469587        2       0.00000000       0.00000000       0.00000000       0.00000000
Cu       7.35173370      -0.00945193     -11.35874557        2       0.00000000       0.00000000       0.00000000       0.00000000
Cu       7.35083307      -1.16676016     -13.58836887        2       0.00000000       0.00000000       0.00000000       0.00000000
Cu       5.51299220      -1.77571634     -11.95850546        2       0.00000000       0.00000000       0.00000000       0.00000000
Cu       5.51405004      -4.08226619     -10.76659867        2       0.00000000       0.00000000       0.00000000       0.00000000
Cu       5.51339045       0.55977270     -13.05392652        2       0.00000000       0.00000000       0.00000000       0.00000000
Cu       3.68620825     -10.46574986      -9.00819546        1       0.00000000      -0.00095881       0.00318536       0.00214597
Cu       0.01573010      -7.01077983      -7.87324320        1       0.00000000      -0.01284526      -0.01038635       0.00383167
Cu       3.68360295      -8.16366196     -10.19755150        1       0.00000000       0.00703361       0.00701097       0.00248446
Cu       1.83898731      -8.74329044      -8.46386267        1       0.00000000       0.00175273      -0.01178985       0.00783995
Cu       1.83453612     -11.09458628      -7.42766946        1       0.00000000       0.00497396       0.02367882       0.00890040
Cu       1.84062598      -6.45684512      -9.60004937        1       0.00000000      -0.00444175       0.01525032      -0.01211672
Cu       3.67589544      -9.31634942     -12.50529088        2       0.00000000       0.00000000       0.00000000       0.00000000
Cu       3.67560025      -5.82222221     -11.36239487        2       0.00000000       0.00000000       0.00000000       0.00000000
Cu       3.67616277      -6.97868571     -13.58929256        2       0.00000000       0.00000000       0.00000000       0.00000000
Cu       1.83835144      -7.58438838     -11.95844126        2       0.00000000       0.00000000       0.00000000       0.00000000
Cu       1.83781183      -9.89160157     -10.76692334        2       0.00000000       0.00000000       0.00000000       0.00000000
Cu       1.83797896      -5.25435173     -13.05522861        2       0.00000000       0.00000000       0.00000000       0.00000000
Cu       7.34017011     -10.46496016      -9.00850174        1       0.00000000       0.00045220       0.00513594       0.00073716
Cu       3.66215459      -7.01220549      -7.86850768        1       0.00000000       0.00124625      -0.01197730      -0.00753048
Cu       7.34342851      -8.16270668     -10.19972993        1       0.00000000      -0.00800072       0.01002092       0.00816701
Cu       5.51393595      -8.76048863      -8.39660963        1       0.00000000       0.00337588       0.00142406      -0.01059619
Cu       5.51490274     -11.16600744      -7.41011095        1       0.00000000      -0.00470793       0.01111394       0.01075453
Cu       5.51077416      -6.40297611      -9.70681426        1       0.00000000       0.00921091      -0.00624637       0.00015003
Cu       7.35123445      -9.31634537     -12.50618378        2       0.00000000       0.00000000       0.00000000       0.00000000
Cu       7.35082940      -5.82147441     -11.35889478        2       0.00000000       0.00000000       0.00000000       0.00000000
Cu       7.35152115      -6.97833626     -13.58708898        2       0.00000000       0.00000000       0.00000000       0.00000000
Cu       5.51257104      -7.58379162     -11.95804900        2       0.00000000       0.00000000       0.00000000       0.00000000
Cu       5.51384986      -9.89126227     -10.76492693        2       0.00000000       0.00000000       0.00000000       0.00000000
Cu       5.51301838      -5.25439768     -13.05486228        2       0.00000000       0.00000000       0.00000000       0.00000000
O        5.55708142      -8.09357415      -4.63593804        0       0.00000000       0.00322040      -0.00319471       0.04625647
C        5.53659427      -7.68331301      -5.73409270        0       0.00000000       0.00143807       0.00677477       0.01231589
C        5.51594426      -7.23871936      -6.97304360        0       0.00000000      -0.00429486       0.00707558       0.01682969
