30
Lattice="7.872856191053 0.0 0.0 0.0 7.872856191053 0.0 0.0 0.0 21.56695" Properties=species:S:1:pos:R:3:tags:I:1:initial_magmoms:R:1:forces:R:3 energy=-43781.856187819 pbc="T T F"
Cu       0.00000000      -0.00000000       3.58870000        3       0.00000000       0.00000000       0.00000000       0.00000000
Cu       2.62428540      -0.00000000       3.58870000        3       0.00000000       0.00000000       0.00000000       0.00000000
Cu       5.24857079      -0.00000000       3.58870000        3       0.00000000       0.00000000       0.00000000       0.00000000
Cu       0.00000000       2.62428540       3.58870000        3       0.00000000       0.00000000       0.00000000       0.00000000
Cu       2.62428540       2.62428540       3.58870000        3       0.00000000       0.00000000       0.00000000       0.00000000
Cu       5.24857079       2.62428540       3.58870000        3       0.00000000       0.00000000       0.00000000       0.00000000
Cu       0.00000000       5.24857079       3.58870000        3       0.00000000       0.00000000       0.00000000       0.00000000
Cu       2.62428540       5.24857079       3.58870000        3       0.00000000       0.00000000       0.00000000       0.00000000
Cu       5.24857079       5.24857079       3.58870000        3       0.00000000       0.00000000       0.00000000       0.00000000
Cu       1.31211342       1.31397011       5.42568063        2       0.00000000       0.00000000       0.00000000       0.00000000
Cu       3.92582671       1.30392176       5.44803675        2       0.00000000       0.00000000       0.00000000       0.00000000
Cu       6.57123570       1.30404304       5.44797887        2       0.00000000       0.00000000       0.00000000       0.00000000
Cu       1.31214371       3.93643317       5.47450036        2       0.00000000       0.00000000       0.00000000       0.00000000
Cu       3.92512754       3.93646497       5.46240904        2       0.00000000       0.00000000       0.00000000       0.00000000
Cu       6.57199121       3.93654689       5.46237341        2       0.00000000       0.00000000       0.00000000       0.00000000
Cu       1.31214107       6.55891270       5.42562024        2       0.00000000       0.00000000       0.00000000       0.00000000
Cu       3.92581724       6.56898373       5.44801105        2       0.00000000       0.00000000       0.00000000       0.00000000
Cu       6.57129252       6.56904789       5.44798864        2       0.00000000       0.00000000       0.00000000       0.00000000
Cu       0.01701861       0.00490491       7.25654698        1       0.00000000      -0.01054949      -0.01017948      -0.01162952
Cu       2.60731756       0.00480735       7.25672343        1       0.00000000       0.01048626      -0.01016071      -0.01148478
Cu       5.24896151       0.00010593       7.20052050        1       0.00000000       0.00003615      -0.00028525      -0.00199847
Cu      -0.01525993       2.63000443       7.28117750        1       0.00000000      -0.00808308      -0.00183934      -0.01242367
Cu       2.63947787       2.63003664       7.28134830        1       0.00000000       0.00799070      -0.00191920      -0.01234872
Cu       5.24878026       2.60791247       7.18792817        1       0.00000000      -0.00000035      -0.00034150      -0.00180244
Cu      -0.01542278       5.24737490       7.27580802        1       0.00000000       0.00013527      -0.00479051       0.00121360
Cu       2.63952543       5.24734982       7.27603529        1       0.00000000      -0.00018917      -0.00479794       0.00121812
Cu       5.24856668       5.26517588       7.18775687        1       0.00000000       0.00001853       0.00031120      -0.00144180
C        1.31200823       3.95047891       8.01611494        0       0.00000000      -0.00000920      -0.02275954      -0.00788964
H        1.31167185       4.01974061       9.12272979        0       0.00000000       0.00004486      -0.02728123      -0.00855752
H        1.31150258       0.33329976       8.35139081        0       0.00000000       0.00042621      -0.14552899       0.02517555
