30
Lattice="7.872856191053 0.0 0.0 0.0 7.872856191053 0.0 0.0 0.0 21.56695" Properties=species:S:1:pos:R:3:tags:I:1:initial_magmoms:R:1:forces:R:3 energy=-43781.802109044 pbc="T T F"
Cu       0.00000000      -0.00000000       3.58870000        3       0.00000000       0.00000000       0.00000000       0.00000000
Cu       2.62428540      -0.00000000       3.58870000        3       0.00000000       0.00000000       0.00000000       0.00000000
Cu       5.24857079      -0.00000000       3.58870000        3       0.00000000       0.00000000       0.00000000       0.00000000
Cu       0.00000000       2.62428540       3.58870000        3       0.00000000       0.00000000       0.00000000       0.00000000
Cu       2.62428540       2.62428540       3.58870000        3       0.00000000       0.00000000       0.00000000       0.00000000
Cu       5.24857079       2.62428540       3.58870000        3       0.00000000       0.00000000       0.00000000       0.00000000
Cu       0.00000000       5.24857079       3.58870000        3       0.00000000       0.00000000       0.00000000       0.00000000
Cu       2.62428540       5.24857079       3.58870000        3       0.00000000       0.00000000       0.00000000       0.00000000
Cu       5.24857079       5.24857079       3.58870000        3       0.00000000       0.00000000       0.00000000       0.00000000
Cu       1.31211342       1.31397011       5.42568063        2       0.00000000       0.00000000       0.00000000       0.00000000
Cu       3.92582671       1.30392176       5.44803675        2       0.00000000       0.00000000       0.00000000       0.00000000
Cu       6.57123570       1.30404304       5.44797887        2       0.00000000       0.00000000       0.00000000       0.00000000
Cu       1.31214371       3.93643317       5.47450036        2       0.00000000       0.00000000       0.00000000       0.00000000
Cu       3.92512754       3.93646497       5.46240904        2       0.00000000       0.00000000       0.00000000       0.00000000
Cu       6.57199121       3.93654689       5.46237341        2       0.00000000       0.00000000       0.00000000       0.00000000
Cu       1.31214107       6.55891270       5.42562024        2       0.00000000       0.00000000       0.00000000       0.00000000
Cu       3.92581724       6.56898373       5.44801105        2       0.00000000       0.00000000       0.00000000       0.00000000
Cu       6.57129252       6.56904789       5.44798864        2       0.00000000       0.00000000       0.00000000       0.00000000
Cu       0.04026909       0.02734055       7.28217749        1       0.00000000       0.00221597      -0.00290514       0.00112960
Cu       2.58420642       0.02720163       7.28203494        1       0.00000000      -0.00231200      -0.00282489       0.00128350
Cu       5.24888185       0.00073462       7.20492529        1       0.00000000       0.00000849      -0.00051129      -0.00264296
Cu       0.00255494       2.63405853       7.30855951        1       0.00000000      -0.01144318       0.00368462      -0.01723668
Cu       2.62186661       2.63426677       7.30856512        1       0.00000000       0.01134970       0.00358160      -0.01713302
Cu       5.24878104       2.60866519       7.19190075        1       0.00000000      -0.00000812      -0.00056704      -0.00148815
Cu      -0.01572135       5.25793324       7.27313329        1       0.00000000       0.00411201      -0.00564868       0.00158245
Cu       2.63994280       5.25792452       7.27335059        1       0.00000000      -0.00413270      -0.00563934       0.00155066
Cu       5.24852584       5.26448998       7.19093454        1       0.00000000      -0.00002493       0.00018225      -0.00107479
C        1.31202851       4.00064165       8.03350659        0       0.00000000       0.00001101      -0.02315051      -0.00992063
H        1.31157296       4.07987591       9.14159137        0       0.00000000       0.00002535      -0.01924971      -0.00747485
H        1.31056315       0.65407253       8.29591025        0       0.00000000       0.00045034      -0.14549040       0.01958650
