30
Lattice="7.872856191053 0.0 0.0 0.0 7.872856191053 0.0 0.0 0.0 21.56695" Properties=species:S:1:pos:R:3:tags:I:1:initial_magmoms:R:1:forces:R:3 energy=-43781.6794980465 pbc="T T F"
Cu       0.00000000      -0.00000000       3.58870000        3       0.00000000       0.00000000       0.00000000       0.00000000
Cu       2.62428540      -0.00000000       3.58870000        3       0.00000000       0.00000000       0.00000000       0.00000000
Cu       5.24857079      -0.00000000       3.58870000        3       0.00000000       0.00000000       0.00000000       0.00000000
Cu       0.00000000       2.62428540       3.58870000        3       0.00000000       0.00000000       0.00000000       0.00000000
Cu       2.62428540       2.62428540       3.58870000        3       0.00000000       0.00000000       0.00000000       0.00000000
Cu       5.24857079       2.62428540       3.58870000        3       0.00000000       0.00000000       0.00000000       0.00000000
Cu       0.00000000       5.24857079       3.58870000        3       0.00000000       0.00000000       0.00000000       0.00000000
Cu       2.62428540       5.24857079       3.58870000        3       0.00000000       0.00000000       0.00000000       0.00000000
Cu       5.24857079       5.24857079       3.58870000        3       0.00000000       0.00000000       0.00000000       0.00000000
Cu       1.31211342       1.31397011       5.42568063        2       0.00000000       0.00000000       0.00000000       0.00000000
Cu       3.92582671       1.30392176       5.44803675        2       0.00000000       0.00000000       0.00000000       0.00000000
Cu       6.57123570       1.30404304       5.44797887        2       0.00000000       0.00000000       0.00000000       0.00000000
Cu       1.31214371       3.93643317       5.47450036        2       0.00000000       0.00000000       0.00000000       0.00000000
Cu       3.92512754       3.93646497       5.46240904        2       0.00000000       0.00000000       0.00000000       0.00000000
Cu       6.57199121       3.93654689       5.46237341        2       0.00000000       0.00000000       0.00000000       0.00000000
Cu       1.31214107       6.55891270       5.42562024        2       0.00000000       0.00000000       0.00000000       0.00000000
Cu       3.92581724       6.56898373       5.44801105        2       0.00000000       0.00000000       0.00000000       0.00000000
Cu       6.57129252       6.56904789       5.44798864        2       0.00000000       0.00000000       0.00000000       0.00000000
Cu       0.03517265       0.03367840       7.27947227        1       0.00000000       0.03218880       0.02240675       0.03004951
Cu       2.58951726       0.03335985       7.27898680        1       0.00000000      -0.03229581       0.02258272       0.03024647
Cu       5.24886311       0.00187934       7.21083944        1       0.00000000       0.00004059      -0.00213340      -0.01128570
Cu       0.02812929       2.62575620       7.34707436        1       0.00000000      -0.02189969       0.05009874      -0.05413008
Cu       2.59650101       2.62619365       7.34684824        1       0.00000000       0.02178755       0.04977204      -0.05388504
Cu       5.24879947       2.60993199       7.19522322        1       0.00000000      -0.00006840      -0.00089416      -0.00937896
Cu      -0.02493865       5.27051660       7.26960041        1       0.00000000       0.01547829      -0.01223174       0.00147562
Cu       2.64920636       5.27048728       7.26988900        1       0.00000000      -0.01561902      -0.01197910       0.00136911
Cu       5.24858212       5.26408305       7.19333745        1       0.00000000      -0.00003808       0.00021223      -0.00772511
C        1.31200369       4.05230934       8.05571851        0       0.00000000      -0.00011953      -0.09294898      -0.03394195
H        1.31151646       4.12281146       9.15825044        0       0.00000000       0.00014550      -0.04998436      -0.04066037
H        1.30955834       0.97921337       8.25245903        0       0.00000000       0.00089045      -0.50784251       0.00213149
