30
Lattice="7.872856191053 0.0 0.0 0.0 7.872856191053 0.0 0.0 0.0 21.56695" Properties=species:S:1:pos:R:3:tags:I:1:initial_magmoms:R:1:forces:R:3 energy=-43781.5305680323 pbc="T T F"
Cu       0.00000000      -0.00000000       3.58870000        3       0.00000000       0.00000000       0.00000000       0.00000000
Cu       2.62428540      -0.00000000       3.58870000        3       0.00000000       0.00000000       0.00000000       0.00000000
Cu       5.24857079      -0.00000000       3.58870000        3       0.00000000       0.00000000       0.00000000       0.00000000
Cu       0.00000000       2.62428540       3.58870000        3       0.00000000       0.00000000       0.00000000       0.00000000
Cu       2.62428540       2.62428540       3.58870000        3       0.00000000       0.00000000       0.00000000       0.00000000
Cu       5.24857079       2.62428540       3.58870000        3       0.00000000       0.00000000       0.00000000       0.00000000
Cu       0.00000000       5.24857079       3.58870000        3       0.00000000       0.00000000       0.00000000       0.00000000
Cu       2.62428540       5.24857079       3.58870000        3       0.00000000       0.00000000       0.00000000       0.00000000
Cu       5.24857079       5.24857079       3.58870000        3       0.00000000       0.00000000       0.00000000       0.00000000
Cu       1.31211342       1.31397011       5.42568063        2       0.00000000       0.00000000       0.00000000       0.00000000
Cu       3.92582671       1.30392176       5.44803675        2       0.00000000       0.00000000       0.00000000       0.00000000
Cu       6.57123570       1.30404304       5.44797887        2       0.00000000       0.00000000       0.00000000       0.00000000
Cu       1.31214371       3.93643317       5.47450036        2       0.00000000       0.00000000       0.00000000       0.00000000
Cu       3.92512754       3.93646497       5.46240904        2       0.00000000       0.00000000       0.00000000       0.00000000
Cu       6.57199121       3.93654689       5.46237341        2       0.00000000       0.00000000       0.00000000       0.00000000
Cu       1.31214107       6.55891270       5.42562024        2       0.00000000       0.00000000       0.00000000       0.00000000
Cu       3.92581724       6.56898373       5.44801105        2       0.00000000       0.00000000       0.00000000       0.00000000
Cu       6.57129252       6.56904789       5.44798864        2       0.00000000       0.00000000       0.00000000       0.00000000
Cu       0.01474766       0.01944738       7.26042188        1       0.00000000       0.01813480       0.01978087       0.02250308
Cu       2.61000952       0.01901765       7.25981178        1       0.00000000      -0.01810051       0.01979555       0.02245786
Cu       5.24883734       0.00323290       7.21800208        1       0.00000000       0.00021906      -0.00226917      -0.01508599
Cu       0.04193765       2.59386704       7.38139326        1       0.00000000      -0.01551209       0.00503002      -0.03423504
Cu       2.58276321       2.59451217       7.38101200        1       0.00000000       0.01571663       0.00517558      -0.03433156
Cu       5.24884276       2.61049560       7.20119170        1       0.00000000       0.00006299      -0.00388908      -0.01053082
Cu      -0.03474050       5.27827742       7.26868133        1       0.00000000       0.00336115      -0.00426750      -0.00184988
Cu       2.65909742       5.27808697       7.26903730        1       0.00000000      -0.00353332      -0.00424425      -0.00175447
Cu       5.24860597       5.26395081       7.19825335        1       0.00000000       0.00001162       0.00280121      -0.01259917
C        1.31208039       4.11136932       8.07713841        0       0.00000000       0.00009679      -0.05721135      -0.03134184
H        1.31142380       4.15450039       9.18422523        0       0.00000000      -0.00001420      -0.01599021      -0.02971196
H        1.30899445       1.30134643       8.25111244        0       0.00000000      -0.00025424      -0.43367076       0.01216183
