30
Lattice="7.872856191053 0.0 0.0 0.0 7.872856191053 0.0 0.0 0.0 21.56695" Properties=species:S:1:pos:R:3:tags:I:1:initial_magmoms:R:1:forces:R:3 energy=-43781.4757368281 pbc="T T F"
Cu       0.00000000      -0.00000000       3.58870000        3       0.00000000       0.00000000       0.00000000       0.00000000
Cu       2.62428540      -0.00000000       3.58870000        3       0.00000000       0.00000000       0.00000000       0.00000000
Cu       5.24857079      -0.00000000       3.58870000        3       0.00000000       0.00000000       0.00000000       0.00000000
Cu       0.00000000       2.62428540       3.58870000        3       0.00000000       0.00000000       0.00000000       0.00000000
Cu       2.62428540       2.62428540       3.58870000        3       0.00000000       0.00000000       0.00000000       0.00000000
Cu       5.24857079       2.62428540       3.58870000        3       0.00000000       0.00000000       0.00000000       0.00000000
Cu       0.00000000       5.24857079       3.58870000        3       0.00000000       0.00000000       0.00000000       0.00000000
Cu       2.62428540       5.24857079       3.58870000        3       0.00000000       0.00000000       0.00000000       0.00000000
Cu       5.24857079       5.24857079       3.58870000        3       0.00000000       0.00000000       0.00000000       0.00000000
Cu       1.31211342       1.31397011       5.42568063        2       0.00000000       0.00000000       0.00000000       0.00000000
Cu       3.92582671       1.30392176       5.44803675        2       0.00000000       0.00000000       0.00000000       0.00000000
Cu       6.57123570       1.30404304       5.44797887        2       0.00000000       0.00000000       0.00000000       0.00000000
Cu       1.31214371       3.93643317       5.47450036        2       0.00000000       0.00000000       0.00000000       0.00000000
Cu       3.92512754       3.93646497       5.46240904        2       0.00000000       0.00000000       0.00000000       0.00000000
Cu       6.57199121       3.93654689       5.46237341        2       0.00000000       0.00000000       0.00000000       0.00000000
Cu       1.31214107       6.55891270       5.42562024        2       0.00000000       0.00000000       0.00000000       0.00000000
Cu       3.92581724       6.56898373       5.44801105        2       0.00000000       0.00000000       0.00000000       0.00000000
Cu       6.57129252       6.56904789       5.44798864        2       0.00000000       0.00000000       0.00000000       0.00000000
Cu       0.00092738       0.00431843       7.24332047        1       0.00000000       0.00193212       0.00652160       0.00264516
Cu       2.62380428       0.00387659       7.24274533        1       0.00000000      -0.00194418       0.00655102       0.00257051
Cu       5.24866867       0.00495665       7.22964521        1       0.00000000       0.00009630      -0.00022352      -0.00985339
Cu       0.05381123       2.59039861       7.40736794        1       0.00000000       0.01045114      -0.01243830       0.01352595
Cu       2.57073210       2.59092918       7.40706395        1       0.00000000      -0.01026691      -0.01223353       0.01325148
Cu       5.24879599       2.61346502       7.20929411        1       0.00000000      -0.00000352      -0.00073933      -0.00421399
Cu      -0.03732027       5.28142352       7.27016678        1       0.00000000      -0.00134831       0.00513635      -0.00461216
Cu       2.66180971       5.28121628       7.27045085        1       0.00000000       0.00130845       0.00514992      -0.00466572
Cu       5.24859813       5.26178943       7.20795400        1       0.00000000      -0.00004523       0.00149816      -0.00632105
C        1.31200483       4.15450140       8.10101723        0       0.00000000       0.00000578       0.01689901      -0.00275912
H        1.31143682       4.16624695       9.20653595        0       0.00000000      -0.00012077       0.02833045       0.00006581
H        1.30919516       1.63124383       8.24166312        0       0.00000000      -0.00052084      -0.07119756       0.00861589
