30
Lattice="7.872856191053 0.0 0.0 0.0 7.872856191053 0.0 0.0 0.0 21.56695" Properties=species:S:1:pos:R:3:tags:I:1:initial_magmoms:R:1:forces:R:3 energy=-43781.4348554174 pbc="T T F"
Cu       0.00000000      -0.00000000       3.58870000        3       0.00000000       0.00000000       0.00000000       0.00000000
Cu       2.62428540      -0.00000000       3.58870000        3       0.00000000       0.00000000       0.00000000       0.00000000
Cu       5.24857079      -0.00000000       3.58870000        3       0.00000000       0.00000000       0.00000000       0.00000000
Cu       0.00000000       2.62428540       3.58870000        3       0.00000000       0.00000000       0.00000000       0.00000000
Cu       2.62428540       2.62428540       3.58870000        3       0.00000000       0.00000000       0.00000000       0.00000000
Cu       5.24857079       2.62428540       3.58870000        3       0.00000000       0.00000000       0.00000000       0.00000000
Cu       0.00000000       5.24857079       3.58870000        3       0.00000000       0.00000000       0.00000000       0.00000000
Cu       2.62428540       5.24857079       3.58870000        3       0.00000000       0.00000000       0.00000000       0.00000000
Cu       5.24857079       5.24857079       3.58870000        3       0.00000000       0.00000000       0.00000000       0.00000000
Cu       1.31211342       1.31397011       5.42568063        2       0.00000000       0.00000000       0.00000000       0.00000000
Cu       3.92582671       1.30392176       5.44803675        2       0.00000000       0.00000000       0.00000000       0.00000000
Cu       6.57123570       1.30404304       5.44797887        2       0.00000000       0.00000000       0.00000000       0.00000000
Cu       1.31214371       3.93643317       5.47450036        2       0.00000000       0.00000000       0.00000000       0.00000000
Cu       3.92512754       3.93646497       5.46240904        2       0.00000000       0.00000000       0.00000000       0.00000000
Cu       6.57199121       3.93654689       5.46237341        2       0.00000000       0.00000000       0.00000000       0.00000000
Cu       1.31214107       6.55891270       5.42562024        2       0.00000000       0.00000000       0.00000000       0.00000000
Cu       3.92581724       6.56898373       5.44801105        2       0.00000000       0.00000000       0.00000000       0.00000000
Cu       6.57129252       6.56904789       5.44798864        2       0.00000000       0.00000000       0.00000000       0.00000000
Cu      -0.00874171      -0.02319135       7.23400777        1       0.00000000      -0.01246865      -0.00879938       0.04081375
Cu       2.63354985      -0.02378541       7.23370372        1       0.00000000       0.01293930      -0.00934861       0.04042932
Cu       5.24824833       0.00574481       7.27203912        1       0.00000000      -0.00059543      -0.00094936       0.04476200
Cu       0.01337141       2.63905132       7.35495538        1       0.00000000       0.02893877      -0.01170963       0.03792779
Cu       2.61044441       2.63876466       7.35577869        1       0.00000000      -0.02895502      -0.01168633       0.03858353
Cu       5.24884957       2.61622140       7.22888206        1       0.00000000       0.00080597      -0.00219426       0.04403614
Cu      -0.03373810       5.26030686       7.29052494        1       0.00000000      -0.03008749      -0.00322081       0.02110898
Cu       2.65843621       5.26003183       7.29104568        1       0.00000000       0.03059763      -0.00322369       0.02159368
Cu       5.24878840       5.25538890       7.23583279        1       0.00000000       0.00032118      -0.00862240       0.04344785
C        1.31197142       4.08968130       8.11036283        0       0.00000000      -0.00007465       0.06177735      -0.05024752
H        1.31193524       4.04765624       9.20398658        0       0.00000000       0.00015259      -0.05657348      -0.04842242
H        1.31127472       1.90911901       8.20132392        0       0.00000000      -0.00050977      -0.32291761      -0.07686183
