30
Lattice="7.872856191053 0.0 0.0 0.0 7.872856191053 0.0 0.0 0.0 21.56695" Properties=species:S:1:pos:R:3:tags:I:1:initial_magmoms:R:1:forces:R:3 energy=-43781.3380980541 pbc="T T F"
Cu       0.00000000      -0.00000000       3.58870000        3       0.00000000       0.00000000       0.00000000       0.00000000
Cu       2.62428540      -0.00000000       3.58870000        3       0.00000000       0.00000000       0.00000000       0.00000000
Cu       5.24857079      -0.00000000       3.58870000        3       0.00000000       0.00000000       0.00000000       0.00000000
Cu       0.00000000       2.62428540       3.58870000        3       0.00000000       0.00000000       0.00000000       0.00000000
Cu       2.62428540       2.62428540       3.58870000        3       0.00000000       0.00000000       0.00000000       0.00000000
Cu       5.24857079       2.62428540       3.58870000        3       0.00000000       0.00000000       0.00000000       0.00000000
Cu       0.00000000       5.24857079       3.58870000        3       0.00000000       0.00000000       0.00000000       0.00000000
Cu       2.62428540       5.24857079       3.58870000        3       0.00000000       0.00000000       0.00000000       0.00000000
Cu       5.24857079       5.24857079       3.58870000        3       0.00000000       0.00000000       0.00000000       0.00000000
Cu       1.31211342       1.31397011       5.42568063        2       0.00000000       0.00000000       0.00000000       0.00000000
Cu       3.92582671       1.30392176       5.44803675        2       0.00000000       0.00000000       0.00000000       0.00000000
Cu       6.57123570       1.30404304       5.44797887        2       0.00000000       0.00000000       0.00000000       0.00000000
Cu       1.31214371       3.93643317       5.47450036        2       0.00000000       0.00000000       0.00000000       0.00000000
Cu       3.92512754       3.93646497       5.46240904        2       0.00000000       0.00000000       0.00000000       0.00000000
Cu       6.57199121       3.93654689       5.46237341        2       0.00000000       0.00000000       0.00000000       0.00000000
Cu       1.31214107       6.55891270       5.42562024        2       0.00000000       0.00000000       0.00000000       0.00000000
Cu       3.92581724       6.56898373       5.44801105        2       0.00000000       0.00000000       0.00000000       0.00000000
Cu       6.57129252       6.56904789       5.44798864        2       0.00000000       0.00000000       0.00000000       0.00000000
Cu      -0.00200630      -0.02133495       7.20283893        1       0.00000000      -0.00541535      -0.00718654       0.00392296
Cu       2.62647210      -0.02154868       7.20282881        1       0.00000000       0.00548068      -0.00728936       0.00391854
Cu       5.24864273       0.00588828       7.24307714        1       0.00000000      -0.00013005      -0.00100802       0.01069259
Cu      -0.01888026       2.64256636       7.31526373        1       0.00000000      -0.01612122      -0.01174053      -0.01355484
Cu       2.64278794       2.64226888       7.31558972        1       0.00000000       0.01630496      -0.01164170      -0.01363495
Cu       5.24830865       2.61722369       7.19814909        1       0.00000000       0.00019716      -0.00034874       0.00889437
Cu      -0.01126314       5.25864880       7.27888632        1       0.00000000      -0.00092329      -0.00475875       0.01092083
Cu       2.63563434       5.25830085       7.27905460        1       0.00000000       0.00103779      -0.00488048       0.01086954
Cu       5.24857871       5.26132000       7.20667616        1       0.00000000       0.00007267      -0.00239198       0.01118061
C        1.31204115       4.02276207       8.14781010        0       0.00000000      -0.00003453      -0.02760348      -0.00459904
H        1.31187780       4.06911403       9.24035571        0       0.00000000       0.00009020      -0.03467242      -0.00436443
H        1.31177716       2.18925370       8.25487764        0       0.00000000      -0.00001622       0.03242185      -0.01529392
