30
Lattice="7.872856191053 0.0 0.0 0.0 7.872856191053 0.0 0.0 0.0 21.56695" Properties=species:S:1:pos:R:3:tags:I:1:initial_magmoms:R:1:forces:R:3 energy=-43781.9107011383 pbc="T T F"
Cu       0.00000000      -0.00000000       3.58870000        3       0.00000000       0.00000000       0.00000000       0.00000000
Cu       2.62428540      -0.00000000       3.58870000        3       0.00000000       0.00000000       0.00000000       0.00000000
Cu       5.24857079      -0.00000000       3.58870000        3       0.00000000       0.00000000       0.00000000       0.00000000
Cu       0.00000000       2.62428540       3.58870000        3       0.00000000       0.00000000       0.00000000       0.00000000
Cu       2.62428540       2.62428540       3.58870000        3       0.00000000       0.00000000       0.00000000       0.00000000
Cu       5.24857079       2.62428540       3.58870000        3       0.00000000       0.00000000       0.00000000       0.00000000
Cu       0.00000000       5.24857079       3.58870000        3       0.00000000       0.00000000       0.00000000       0.00000000
Cu       2.62428540       5.24857079       3.58870000        3       0.00000000       0.00000000       0.00000000       0.00000000
Cu       5.24857079       5.24857079       3.58870000        3       0.00000000       0.00000000       0.00000000       0.00000000
Cu       1.31211342       1.31397011       5.42568063        2       0.00000000       0.00000000       0.00000000       0.00000000
Cu       3.92582671       1.30392176       5.44803675        2       0.00000000       0.00000000       0.00000000       0.00000000
Cu       6.57123570       1.30404304       5.44797887        2       0.00000000       0.00000000       0.00000000       0.00000000
Cu       1.31214371       3.93643317       5.47450036        2       0.00000000       0.00000000       0.00000000       0.00000000
Cu       3.92512754       3.93646497       5.46240904        2       0.00000000       0.00000000       0.00000000       0.00000000
Cu       6.57199121       3.93654689       5.46237341        2       0.00000000       0.00000000       0.00000000       0.00000000
Cu       1.31214107       6.55891270       5.42562024        2       0.00000000       0.00000000       0.00000000       0.00000000
Cu       3.92581724       6.56898373       5.44801105        2       0.00000000       0.00000000       0.00000000       0.00000000
Cu       6.57129252       6.56904789       5.44798864        2       0.00000000       0.00000000       0.00000000       0.00000000
Cu       0.00326344      -0.02079996       7.18643196        1       0.00000000       0.01169560       0.00024914      -0.03780651
Cu       2.62109295      -0.02095825       7.18637811        1       0.00000000      -0.01193639       0.00036292      -0.03793733
Cu       5.24870207       0.00581079       7.22173900        1       0.00000000       0.00012873      -0.00030703      -0.04867595
Cu      -0.08551289       2.62735899       7.27302577        1       0.00000000      -0.15997914      -0.03679826      -0.10348931
Cu       2.70948911       2.62732954       7.27335718        1       0.00000000       0.16018285      -0.03615870      -0.10351546
Cu       5.24825905       2.62142572       7.18805238        1       0.00000000      -0.00010548       0.00980431      -0.02256392
Cu       0.00583017       5.22460500       7.27253351        1       0.00000000       0.04042815      -0.08048082      -0.01257981
Cu       2.61840750       5.22429452       7.27260800        1       0.00000000      -0.04073800      -0.08043754      -0.01280800
Cu       5.24851793       5.26033212       7.19260483        1       0.00000000      -0.00012760      -0.00258357      -0.03148049
C        1.31186610       3.85170780       8.22987027        0       0.00000000      -0.00041189      -0.40785171       0.19010490
H        1.31165867       4.17137356       9.27779941        0       0.00000000      -0.00048359       0.22834670       0.08872511
H        1.31175455       2.62134218       8.38933645        0       0.00000000      -0.00005344       1.01695885       0.30651213
