30
Lattice="7.872856191053 0.0 0.0 0.0 7.872856191053 0.0 0.0 0.0 21.56695" Properties=species:S:1:pos:R:3:tags:I:1:initial_magmoms:R:1:forces:R:3 energy=-43782.0774624941 pbc="T T F"
Cu       0.00000000      -0.00000000       3.58870000        3       0.00000000       0.00000000       0.00000000       0.00000000
Cu       2.62428540      -0.00000000       3.58870000        3       0.00000000       0.00000000       0.00000000       0.00000000
Cu       5.24857079      -0.00000000       3.58870000        3       0.00000000       0.00000000       0.00000000       0.00000000
Cu       0.00000000       2.62428540       3.58870000        3       0.00000000       0.00000000       0.00000000       0.00000000
Cu       2.62428540       2.62428540       3.58870000        3       0.00000000       0.00000000       0.00000000       0.00000000
Cu       5.24857079       2.62428540       3.58870000        3       0.00000000       0.00000000       0.00000000       0.00000000
Cu       0.00000000       5.24857079       3.58870000        3       0.00000000       0.00000000       0.00000000       0.00000000
Cu       2.62428540       5.24857079       3.58870000        3       0.00000000       0.00000000       0.00000000       0.00000000
Cu       5.24857079       5.24857079       3.58870000        3       0.00000000       0.00000000       0.00000000       0.00000000
Cu       1.31211342       1.31397011       5.42568063        2       0.00000000       0.00000000       0.00000000       0.00000000
Cu       3.92582671       1.30392176       5.44803675        2       0.00000000       0.00000000       0.00000000       0.00000000
Cu       6.57123570       1.30404304       5.44797887        2       0.00000000       0.00000000       0.00000000       0.00000000
Cu       1.31214371       3.93643317       5.47450036        2       0.00000000       0.00000000       0.00000000       0.00000000
Cu       3.92512754       3.93646497       5.46240904        2       0.00000000       0.00000000       0.00000000       0.00000000
Cu       6.57199121       3.93654689       5.46237341        2       0.00000000       0.00000000       0.00000000       0.00000000
Cu       1.31214107       6.55891270       5.42562024        2       0.00000000       0.00000000       0.00000000       0.00000000
Cu       3.92581724       6.56898373       5.44801105        2       0.00000000       0.00000000       0.00000000       0.00000000
Cu       6.57129252       6.56904789       5.44798864        2       0.00000000       0.00000000       0.00000000       0.00000000
Cu       0.00851642      -0.01384331       7.19185200        1       0.00000000       0.00179421       0.00200378       0.00188490
Cu       2.61581518      -0.01387785       7.19177978        1       0.00000000      -0.00180141       0.00205106       0.00188404
Cu       5.24862834       0.00189659       7.22484515        1       0.00000000      -0.00002329      -0.00128781       0.00101575
Cu      -0.05792740       2.63353636       7.29251952        1       0.00000000       0.00876667       0.00134959       0.00689271
Cu       2.68234200       2.63355594       7.29275339        1       0.00000000      -0.00862517       0.00136442       0.00686537
Cu       5.24873038       2.61864141       7.19829042        1       0.00000000       0.00015097      -0.00078850       0.00343955
Cu      -0.01310538       5.21072451       7.27328584        1       0.00000000      -0.00596873      -0.00472907      -0.00016753
Cu       2.63742961       5.21053043       7.27358440        1       0.00000000       0.00599323      -0.00468637      -0.00009300
Cu       5.24862834       5.25783743       7.19898398        1       0.00000000       0.00003220      -0.00090124       0.00215392
C        1.31192677       3.83754900       8.30868215        0       0.00000000       0.00002165      -0.00569508       0.02473977
H        1.31093159       4.47529068       9.19313080        0       0.00000000      -0.00023374       0.09717452      -0.02658146
H        1.31176993       2.78865956       8.74322320        0       0.00000000      -0.00000807       0.05352516       0.11418073
