27
Lattice="7.872856191053 0.0 0.0 0.0 7.872856191053 0.0 0.0 0.0 21.56695" Properties=species:S:1:pos:R:3:tags:I:1:initial_magmoms:R:1:forces:R:3:magmoms:R:1 energy=-43585.5766154592 pbc="T T F"
Cu       0.00000000      -0.00000000       3.58870000        3       0.00000000      -0.01429091      -0.00000861       0.22112009       0.00000000
Cu       2.62428540      -0.00000000       3.58870000        3       0.00000000       0.01375138      -0.00000826       0.22116510       0.00000000
Cu       5.24857079      -0.00000000       3.58870000        3       0.00000000       0.00024800      -0.00001816       0.28028307       0.00000000
Cu       0.00000000       2.62428540       3.58870000        3       0.00000000      -0.00686061       0.02884683       0.27717678       0.00000000
Cu       2.62428540       2.62428540       3.58870000        3       0.00000000       0.00773317       0.02946773       0.27727843       0.00000000
Cu       5.24857079       2.62428540       3.58870000        3       0.00000000      -0.00046786       0.01163242       0.32268764       0.00000000
Cu       0.00000000       5.24857079       3.58870000        3       0.00000000      -0.00679531      -0.02903015       0.27714884       0.00000000
Cu       2.62428540       5.24857079       3.58870000        3       0.00000000       0.00771186      -0.02981124       0.27705105       0.00000000
Cu       5.24857079       5.24857079       3.58870000        3       0.00000000      -0.00045896      -0.01173619       0.32238644       0.00000000
Cu       1.31211342       1.31397011       5.42568063        2       0.00000000       0.00082881       0.00092262      -0.14971905       0.00000000
Cu       3.92582671       1.30392176       5.44803675        2       0.00000000       0.07496496       0.06034218      -0.25063598       0.00000000
Cu       6.57123570       1.30404304       5.44797887        2       0.00000000      -0.07342816       0.06077093      -0.24923289       0.00000000
Cu       1.31214371       3.93643317       5.47450036        2       0.00000000      -0.00327060       0.00111740      -0.37817768       0.00000000
Cu       3.92512754       3.93646497       5.46240904        2       0.00000000       0.05933494       0.00048991      -0.31770177       0.00000000
Cu       6.57199121       3.93654689       5.46237341        2       0.00000000      -0.06746250       0.00109341      -0.31509190       0.00000000
Cu       1.31214107       6.55891270       5.42562024        2       0.00000000       0.00124824       0.00159607      -0.14862338       0.00000000
Cu       3.92581724       6.56898373       5.44801105        2       0.00000000       0.07570566      -0.05927143      -0.24992818       0.00000000
Cu       6.57129252       6.56904789       5.44798864        2       0.00000000      -0.07308789      -0.05832411      -0.24861909       0.00000000
Cu       0.00856655       0.00141483       7.22057080        1       0.00000000       0.00826547      -0.00245504      -0.01708307       0.00000000
Cu       2.62184842       0.00039398       7.22094211        1       0.00000000      -0.01636390      -0.00129255      -0.01759691       0.00000000
Cu       5.25090849       0.00064432       7.22253605        1       0.00000000      -0.00123213      -0.00103984      -0.02569266       0.00000000
Cu      -0.00086172       2.61861014       7.22852742        1       0.00000000       0.00435695      -0.00602295      -0.01920348       0.00000000
Cu       2.62083630       2.61748474       7.22830468        1       0.00000000      -0.00038467      -0.00458610      -0.01851498       0.00000000
Cu       5.24590141       2.62369503       7.21822009        1       0.00000000       0.00420439      -0.01741961      -0.01587774       0.00000000
Cu      -0.00024626       5.25640558       7.22858087        1       0.00000000       0.00374351       0.00403789      -0.01993966       0.00000000
Cu       2.62155942       5.25569155       7.22829541        1       0.00000000      -0.00130729       0.00446668      -0.01861936       0.00000000
Cu       5.24662110       5.25029345       7.21823697        1       0.00000000       0.00331345       0.01624015      -0.01603964       0.00000000
