30
Lattice="7.872856191053 0.0 0.0 0.0 7.872856191053 0.0 0.0 0.0 21.56695" Properties=species:S:1:pos:R:3:tags:I:1:initial_magmoms:R:1:forces:R:3 energy=-149368.080660682 pbc="T T F"
Cu       0.00000000      -0.00000000       3.58870000        3       0.00000000       0.00000000       0.00000000       0.00000000
Cu       2.62428540      -0.00000000       3.58870000        3       0.00000000       0.00000000       0.00000000       0.00000000
Cu       5.24857079      -0.00000000       3.58870000        3       0.00000000       0.00000000       0.00000000       0.00000000
Cu       0.00000000       2.62428540       3.58870000        3       0.00000000       0.00000000       0.00000000       0.00000000
Cu       2.62428540       2.62428540       3.58870000        3       0.00000000       0.00000000       0.00000000       0.00000000
Cu       5.24857079       2.62428540       3.58870000        3       0.00000000       0.00000000       0.00000000       0.00000000
Cu       0.00000000       5.24857079       3.58870000        3       0.00000000       0.00000000       0.00000000       0.00000000
Cu       2.62428540       5.24857079       3.58870000        3       0.00000000       0.00000000       0.00000000       0.00000000
Cu       5.24857079       5.24857079       3.58870000        3       0.00000000       0.00000000       0.00000000       0.00000000
Cu       1.31211342       1.31397011       5.42568063        2       0.00000000       0.00000000       0.00000000       0.00000000
Cu       3.92582671       1.30392176       5.44803675        2       0.00000000       0.00000000       0.00000000       0.00000000
Cu       6.57123570       1.30404304       5.44797887        2       0.00000000       0.00000000       0.00000000       0.00000000
Cu       1.31214371       3.93643317       5.47450036        2       0.00000000       0.00000000       0.00000000       0.00000000
Cu       3.92512754       3.93646497       5.46240904        2       0.00000000       0.00000000       0.00000000       0.00000000
Cu       6.57199121       3.93654689       5.46237341        2       0.00000000       0.00000000       0.00000000       0.00000000
Cu       1.31214107       6.55891270       5.42562024        2       0.00000000       0.00000000       0.00000000       0.00000000
Cu       3.92581724       6.56898373       5.44801105        2       0.00000000       0.00000000       0.00000000       0.00000000
Cu       6.57129252       6.56904789       5.44798864        2       0.00000000       0.00000000       0.00000000       0.00000000
Cu       0.01814272      -0.00062226       7.18525293        1       0.00000000       0.00225794       0.00011261       0.01792470
Cu       2.63625666       0.00714257       7.27228055        1       0.00000000      -0.00442384      -0.00092431       0.01177025
Cu       5.24735079       0.00094132       7.25997880        1       0.00000000       0.00419013      -0.00090529       0.01228807
Cu      -0.01649204       2.59653510       7.19074475        1       0.00000000       0.00354967       0.00037332       0.01943420
Cu       2.60492352       2.63441138       7.28156903        1       0.00000000       0.00062529       0.00439710       0.01869372
Cu       5.26958798       2.62584392       7.17643196        1       0.00000000      -0.00094462       0.00264258       0.01845975
Cu      -0.01781019       5.27497858       7.19325556        1       0.00000000       0.00379315      -0.00034556       0.01872997
Cu       2.61042822       5.25388558       7.27904585        1       0.00000000      -0.00042500      -0.01043894       0.02514128
Cu       5.26763391       5.24883161       7.17562075        1       0.00000000      -0.00126190      -0.00317968       0.01857031
C        2.51079485       3.96800994       8.80675696        0       0.00000000      -0.00043143       0.00137785      -0.00653497
O        2.47898771       3.93818757       9.96795373        0       0.00000000       0.00265852       0.00116445       0.00391759
H        3.95205020       0.14357151       8.28295103        0       0.00000000      -0.00325425      -0.01404182       0.01032864
