30
Lattice="7.872856191053 0.0 0.0 0.0 7.872856191053 0.0 0.0 0.0 21.56695" Properties=species:S:1:pos:R:3:tags:I:1:initial_magmoms:R:1:forces:R:3 energy=-149367.5906967 pbc="T T F"
Cu       0.00000000      -0.00000000       3.58870000        3       0.00000000       0.00000000       0.00000000       0.00000000
Cu       2.62428540      -0.00000000       3.58870000        3       0.00000000       0.00000000       0.00000000       0.00000000
Cu       5.24857079      -0.00000000       3.58870000        3       0.00000000       0.00000000       0.00000000       0.00000000
Cu       0.00000000       2.62428540       3.58870000        3       0.00000000       0.00000000       0.00000000       0.00000000
Cu       2.62428540       2.62428540       3.58870000        3       0.00000000       0.00000000       0.00000000       0.00000000
Cu       5.24857079       2.62428540       3.58870000        3       0.00000000       0.00000000       0.00000000       0.00000000
Cu       0.00000000       5.24857079       3.58870000        3       0.00000000       0.00000000       0.00000000       0.00000000
Cu       2.62428540       5.24857079       3.58870000        3       0.00000000       0.00000000       0.00000000       0.00000000
Cu       5.24857079       5.24857079       3.58870000        3       0.00000000       0.00000000       0.00000000       0.00000000
Cu       1.31211342       1.31397011       5.42568063        2       0.00000000       0.00000000       0.00000000       0.00000000
Cu       3.92582671       1.30392176       5.44803675        2       0.00000000       0.00000000       0.00000000       0.00000000
Cu       6.57123570       1.30404304       5.44797887        2       0.00000000       0.00000000       0.00000000       0.00000000
Cu       1.31214371       3.93643317       5.47450036        2       0.00000000       0.00000000       0.00000000       0.00000000
Cu       3.92512754       3.93646497       5.46240904        2       0.00000000       0.00000000       0.00000000       0.00000000
Cu       6.57199121       3.93654689       5.46237341        2       0.00000000       0.00000000       0.00000000       0.00000000
Cu       1.31214107       6.55891270       5.42562024        2       0.00000000       0.00000000       0.00000000       0.00000000
Cu       3.92581724       6.56898373       5.44801105        2       0.00000000       0.00000000       0.00000000       0.00000000
Cu       6.57129252       6.56904789       5.44798864        2       0.00000000       0.00000000       0.00000000       0.00000000
Cu       0.00104105      -0.01078106       7.19252739        1       0.00000000      -0.00827407      -0.00329101      -0.01053715
Cu       2.61491403      -0.00052061       7.19970228        1       0.00000000       0.00753899      -0.00466450      -0.00553893
Cu       5.25028809      -0.00108623       7.19992468        1       0.00000000       0.00073662      -0.00562172      -0.01344173
Cu      -0.02083888       2.61268334       7.22025459        1       0.00000000       0.00070988       0.00606163       0.00819899
Cu       2.68076499       2.61690566       7.32773174        1       0.00000000       0.01099198       0.00299945      -0.01673814
Cu       5.27298397       2.61810920       7.18556166        1       0.00000000       0.00390885       0.00229085      -0.01128406
Cu      -0.00756125       5.26884044       7.19728839        1       0.00000000      -0.00849004       0.01035512      -0.00908062
Cu       2.62623023       5.26194630       7.20695595        1       0.00000000       0.00699623       0.00327790      -0.00379238
Cu       5.25268139       5.25561293       7.19547462        1       0.00000000      -0.00326762       0.00441896      -0.01330006
C        2.33344334       2.71574762       9.26214276        0       0.00000000      -0.02494870      -0.00935444      -0.00622773
O        1.21832584       2.78877609       9.73081638        0       0.00000000      -0.01755369      -0.01697365      -0.01282723
H        3.20991504       2.69007669       9.95343374        0       0.00000000      -0.02742159       0.00714818       0.00468944
